   2   2   0   0
  0.1699882E+04  0.1500000E-08  0.1501000E-08  0.1510000E-08  0.5000000E-15
   1.0000000000000000E-004
  CAR 
 unknown system                          
      2.24280954    -34.22613508  301    -11.34187233      1.00000000
    -34.226  0.0000E+00  0.0000E+00  0.0000E+00  0.0000E+00
    -34.105  0.0000E+00  0.0000E+00  0.0000E+00  0.0000E+00
    -33.983  0.0000E+00  0.0000E+00  0.0000E+00  0.0000E+00
    -33.861  0.0000E+00  0.0000E+00  0.0000E+00  0.0000E+00
    -33.740  0.0000E+00  0.0000E+00  0.0000E+00  0.0000E+00
    -33.618  0.0000E+00  0.0000E+00  0.0000E+00  0.0000E+00
    -33.497  0.0000E+00  0.0000E+00  0.0000E+00  0.0000E+00
    -33.375  0.0000E+00  0.0000E+00  0.0000E+00  0.0000E+00
    -33.254  0.0000E+00  0.0000E+00  0.0000E+00  0.0000E+00
    -33.132  0.0000E+00  0.0000E+00  0.0000E+00  0.0000E+00
    -33.011  0.0000E+00  0.0000E+00  0.0000E+00  0.0000E+00
    -32.889  0.0000E+00  0.0000E+00  0.0000E+00  0.0000E+00
    -32.767  0.0000E+00  0.0000E+00  0.0000E+00  0.0000E+00
    -32.646  0.0000E+00  0.0000E+00  0.0000E+00  0.0000E+00
    -32.524  0.3290E+00  0.0000E+00  0.4000E-01  0.0000E+00
    -32.403  0.0000E+00  0.0000E+00  0.4000E-01  0.0000E+00
    -32.281  0.0000E+00  0.0000E+00  0.4000E-01  0.0000E+00
    -32.160  0.0000E+00  0.0000E+00  0.4000E-01  0.0000E+00
    -32.038  0.0000E+00  0.0000E+00  0.4000E-01  0.0000E+00
    -31.916  0.0000E+00  0.0000E+00  0.4000E-01  0.0000E+00
    -31.795  0.0000E+00  0.0000E+00  0.4000E-01  0.0000E+00
    -31.673  0.0000E+00  0.0000E+00  0.4000E-01  0.0000E+00
    -31.552  0.0000E+00  0.0000E+00  0.4000E-01  0.0000E+00
    -31.430  0.0000E+00  0.0000E+00  0.4000E-01  0.0000E+00
    -31.309  0.0000E+00  0.3290E+00  0.4000E-01  0.4000E-01
    -31.187  0.0000E+00  0.0000E+00  0.4000E-01  0.4000E-01
    -31.065  0.0000E+00  0.0000E+00  0.4000E-01  0.4000E-01
    -30.944  0.0000E+00  0.0000E+00  0.4000E-01  0.4000E-01
    -30.822  0.0000E+00  0.0000E+00  0.4000E-01  0.4000E-01
    -30.701  0.0000E+00  0.0000E+00  0.4000E-01  0.4000E-01
    -30.579  0.0000E+00  0.0000E+00  0.4000E-01  0.4000E-01
    -30.458  0.0000E+00  0.0000E+00  0.4000E-01  0.4000E-01
    -30.336  0.0000E+00  0.0000E+00  0.4000E-01  0.4000E-01
    -30.215  0.0000E+00  0.0000E+00  0.4000E-01  0.4000E-01
    -30.093  0.0000E+00  0.0000E+00  0.4000E-01  0.4000E-01
    -29.971  0.0000E+00  0.0000E+00  0.4000E-01  0.4000E-01
    -29.850  0.0000E+00  0.0000E+00  0.4000E-01  0.4000E-01
    -29.728  0.0000E+00  0.0000E+00  0.4000E-01  0.4000E-01
    -29.607  0.0000E+00  0.0000E+00  0.4000E-01  0.4000E-01
    -29.485  0.0000E+00  0.0000E+00  0.4000E-01  0.4000E-01
    -29.364  0.0000E+00  0.0000E+00  0.4000E-01  0.4000E-01
    -29.242  0.0000E+00  0.0000E+00  0.4000E-01  0.4000E-01
    -29.120  0.0000E+00  0.0000E+00  0.4000E-01  0.4000E-01
    -28.999  0.0000E+00  0.0000E+00  0.4000E-01  0.4000E-01
    -28.877  0.0000E+00  0.0000E+00  0.4000E-01  0.4000E-01
    -28.756  0.0000E+00  0.0000E+00  0.4000E-01  0.4000E-01
    -28.634  0.0000E+00  0.0000E+00  0.4000E-01  0.4000E-01
    -28.513  0.0000E+00  0.0000E+00  0.4000E-01  0.4000E-01
    -28.391  0.0000E+00  0.0000E+00  0.4000E-01  0.4000E-01
    -28.270  0.0000E+00  0.0000E+00  0.4000E-01  0.4000E-01
    -28.148  0.0000E+00  0.0000E+00  0.4000E-01  0.4000E-01
    -28.026  0.0000E+00  0.0000E+00  0.4000E-01  0.4000E-01
    -27.905  0.0000E+00  0.0000E+00  0.4000E-01  0.4000E-01
    -27.783  0.0000E+00  0.0000E+00  0.4000E-01  0.4000E-01
    -27.662  0.0000E+00  0.0000E+00  0.4000E-01  0.4000E-01
    -27.540  0.0000E+00  0.0000E+00  0.4000E-01  0.4000E-01
    -27.419  0.0000E+00  0.0000E+00  0.4000E-01  0.4000E-01
    -27.297  0.0000E+00  0.0000E+00  0.4000E-01  0.4000E-01
    -27.175  0.0000E+00  0.0000E+00  0.4000E-01  0.4000E-01
    -27.054  0.0000E+00  0.0000E+00  0.4000E-01  0.4000E-01
    -26.932  0.0000E+00  0.0000E+00  0.4000E-01  0.4000E-01
    -26.811  0.0000E+00  0.0000E+00  0.4000E-01  0.4000E-01
    -26.689  0.0000E+00  0.0000E+00  0.4000E-01  0.4000E-01
    -26.568  0.0000E+00  0.0000E+00  0.4000E-01  0.4000E-01
    -26.446  0.0000E+00  0.0000E+00  0.4000E-01  0.4000E-01
    -26.325  0.0000E+00  0.0000E+00  0.4000E-01  0.4000E-01
    -26.203  0.0000E+00  0.0000E+00  0.4000E-01  0.4000E-01
    -26.081  0.0000E+00  0.0000E+00  0.4000E-01  0.4000E-01
    -25.960  0.0000E+00  0.0000E+00  0.4000E-01  0.4000E-01
    -25.838  0.0000E+00  0.0000E+00  0.4000E-01  0.4000E-01
    -25.717  0.0000E+00  0.0000E+00  0.4000E-01  0.4000E-01
    -25.595  0.0000E+00  0.0000E+00  0.4000E-01  0.4000E-01
    -25.474  0.0000E+00  0.0000E+00  0.4000E-01  0.4000E-01
    -25.352  0.0000E+00  0.0000E+00  0.4000E-01  0.4000E-01
    -25.230  0.0000E+00  0.0000E+00  0.4000E-01  0.4000E-01
    -25.109  0.0000E+00  0.0000E+00  0.4000E-01  0.4000E-01
    -24.987  0.0000E+00  0.0000E+00  0.4000E-01  0.4000E-01
    -24.866  0.0000E+00  0.0000E+00  0.4000E-01  0.4000E-01
    -24.744  0.0000E+00  0.0000E+00  0.4000E-01  0.4000E-01
    -24.623  0.0000E+00  0.0000E+00  0.4000E-01  0.4000E-01
    -24.501  0.0000E+00  0.0000E+00  0.4000E-01  0.4000E-01
    -24.380  0.0000E+00  0.0000E+00  0.4000E-01  0.4000E-01
    -24.258  0.0000E+00  0.0000E+00  0.4000E-01  0.4000E-01
    -24.136  0.0000E+00  0.0000E+00  0.4000E-01  0.4000E-01
    -24.015  0.0000E+00  0.0000E+00  0.4000E-01  0.4000E-01
    -23.893  0.0000E+00  0.0000E+00  0.4000E-01  0.4000E-01
    -23.772  0.0000E+00  0.0000E+00  0.4000E-01  0.4000E-01
    -23.650  0.0000E+00  0.0000E+00  0.4000E-01  0.4000E-01
    -23.529  0.0000E+00  0.0000E+00  0.4000E-01  0.4000E-01
    -23.407  0.0000E+00  0.0000E+00  0.4000E-01  0.4000E-01
    -23.285  0.0000E+00  0.0000E+00  0.4000E-01  0.4000E-01
    -23.164  0.0000E+00  0.0000E+00  0.4000E-01  0.4000E-01
    -23.042  0.0000E+00  0.0000E+00  0.4000E-01  0.4000E-01
    -22.921  0.0000E+00  0.0000E+00  0.4000E-01  0.4000E-01
    -22.799  0.0000E+00  0.0000E+00  0.4000E-01  0.4000E-01
    -22.678  0.0000E+00  0.0000E+00  0.4000E-01  0.4000E-01
    -22.556  0.0000E+00  0.0000E+00  0.4000E-01  0.4000E-01
    -22.435  0.0000E+00  0.0000E+00  0.4000E-01  0.4000E-01
    -22.313  0.0000E+00  0.0000E+00  0.4000E-01  0.4000E-01
    -22.191  0.0000E+00  0.0000E+00  0.4000E-01  0.4000E-01
    -22.070  0.0000E+00  0.0000E+00  0.4000E-01  0.4000E-01
    -21.948  0.0000E+00  0.0000E+00  0.4000E-01  0.4000E-01
    -21.827  0.0000E+00  0.0000E+00  0.4000E-01  0.4000E-01
    -21.705  0.0000E+00  0.0000E+00  0.4000E-01  0.4000E-01
    -21.584  0.0000E+00  0.0000E+00  0.4000E-01  0.4000E-01
    -21.462  0.0000E+00  0.0000E+00  0.4000E-01  0.4000E-01
    -21.340  0.0000E+00  0.0000E+00  0.4000E-01  0.4000E-01
    -21.219  0.0000E+00  0.0000E+00  0.4000E-01  0.4000E-01
    -21.097  0.0000E+00  0.0000E+00  0.4000E-01  0.4000E-01
    -20.976  0.0000E+00  0.0000E+00  0.4000E-01  0.4000E-01
    -20.854  0.0000E+00  0.0000E+00  0.4000E-01  0.4000E-01
    -20.733  0.0000E+00  0.0000E+00  0.4000E-01  0.4000E-01
    -20.611  0.3290E+00  0.0000E+00  0.8000E-01  0.4000E-01
    -20.489  0.0000E+00  0.0000E+00  0.8000E-01  0.4000E-01
    -20.368  0.0000E+00  0.0000E+00  0.8000E-01  0.4000E-01
    -20.246  0.0000E+00  0.0000E+00  0.8000E-01  0.4000E-01
    -20.125  0.0000E+00  0.0000E+00  0.8000E-01  0.4000E-01
    -20.003  0.0000E+00  0.0000E+00  0.8000E-01  0.4000E-01
    -19.882  0.0000E+00  0.0000E+00  0.8000E-01  0.4000E-01
    -19.760  0.0000E+00  0.0000E+00  0.8000E-01  0.4000E-01
    -19.639  0.0000E+00  0.0000E+00  0.8000E-01  0.4000E-01
    -19.517  0.0000E+00  0.0000E+00  0.8000E-01  0.4000E-01
    -19.395  0.0000E+00  0.0000E+00  0.8000E-01  0.4000E-01
    -19.274  0.0000E+00  0.0000E+00  0.8000E-01  0.4000E-01
    -19.152  0.0000E+00  0.0000E+00  0.8000E-01  0.4000E-01
    -19.031  0.0000E+00  0.0000E+00  0.8000E-01  0.4000E-01
    -18.909  0.0000E+00  0.2919E-08  0.8000E-01  0.4000E-01
    -18.788  0.0000E+00  0.0000E+00  0.8000E-01  0.8000E-01
    -18.666  0.0000E+00  0.0000E+00  0.8000E-01  0.8000E-01
    -18.544  0.0000E+00  0.0000E+00  0.8000E-01  0.8000E-01
    -18.423  0.0000E+00  0.0000E+00  0.8000E-01  0.8000E-01
    -18.301  0.0000E+00  0.0000E+00  0.8000E-01  0.8000E-01
    -18.180  0.0000E+00  0.0000E+00  0.8000E-01  0.8000E-01
    -18.058  0.0000E+00  0.0000E+00  0.8000E-01  0.8000E-01
    -17.937  0.0000E+00  0.0000E+00  0.8000E-01  0.8000E-01
    -17.815  0.0000E+00  0.0000E+00  0.8000E-01  0.8000E-01
    -17.694  0.0000E+00  0.0000E+00  0.8000E-01  0.8000E-01
    -17.572  0.0000E+00  0.0000E+00  0.8000E-01  0.8000E-01
    -17.450  0.0000E+00  0.0000E+00  0.8000E-01  0.8000E-01
    -17.329  0.0000E+00  0.0000E+00  0.8000E-01  0.8000E-01
    -17.207  0.0000E+00  0.0000E+00  0.8000E-01  0.8000E-01
    -17.086  0.0000E+00  0.0000E+00  0.8000E-01  0.8000E-01
    -16.964  0.0000E+00  0.0000E+00  0.8000E-01  0.8000E-01
    -16.843  0.0000E+00  0.0000E+00  0.8000E-01  0.8000E-01
    -16.721  0.0000E+00  0.0000E+00  0.8000E-01  0.8000E-01
    -16.599  0.0000E+00  0.0000E+00  0.8000E-01  0.8000E-01
    -16.478  0.0000E+00  0.0000E+00  0.8000E-01  0.8000E-01
    -16.356  0.0000E+00  0.0000E+00  0.8000E-01  0.8000E-01
    -16.235  0.0000E+00  0.0000E+00  0.8000E-01  0.8000E-01
    -16.113  0.0000E+00  0.0000E+00  0.8000E-01  0.8000E-01
    -15.992  0.0000E+00  0.0000E+00  0.8000E-01  0.8000E-01
    -15.870  0.0000E+00  0.0000E+00  0.8000E-01  0.8000E-01
    -15.749  0.0000E+00  0.0000E+00  0.8000E-01  0.8000E-01
    -15.627  0.0000E+00  0.0000E+00  0.8000E-01  0.8000E-01
    -15.505  0.0000E+00  0.0000E+00  0.8000E-01  0.8000E-01
    -15.384  0.0000E+00  0.0000E+00  0.8000E-01  0.8000E-01
    -15.262  0.0000E+00  0.0000E+00  0.8000E-01  0.8000E-01
    -15.141  0.0000E+00  0.0000E+00  0.8000E-01  0.8000E-01
    -15.019  0.0000E+00  0.0000E+00  0.8000E-01  0.8000E-01
    -14.898  0.0000E+00  0.0000E+00  0.8000E-01  0.8000E-01
    -14.776  0.0000E+00  0.0000E+00  0.8000E-01  0.8000E-01
    -14.654  0.0000E+00  0.0000E+00  0.8000E-01  0.8000E-01
    -14.533  0.0000E+00  0.0000E+00  0.8000E-01  0.8000E-01
    -14.411  0.0000E+00  0.0000E+00  0.8000E-01  0.8000E-01
    -14.290  0.0000E+00  0.0000E+00  0.8000E-01  0.8000E-01
    -14.168  0.0000E+00  0.0000E+00  0.8000E-01  0.8000E-01
    -14.047  0.0000E+00  0.0000E+00  0.8000E-01  0.8000E-01
    -13.925  0.0000E+00  0.0000E+00  0.8000E-01  0.8000E-01
    -13.804  0.0000E+00  0.0000E+00  0.8000E-01  0.8000E-01
    -13.682  0.0000E+00  0.0000E+00  0.8000E-01  0.8000E-01
    -13.560  0.0000E+00  0.0000E+00  0.8000E-01  0.8000E-01
    -13.439  0.2543E+00  0.0000E+00  0.1109E+00  0.8000E-01
    -13.317  0.4619E-01  0.0000E+00  0.1256E+00  0.8000E-01
    -13.196  0.0000E+00  0.0000E+00  0.2000E+00  0.8000E-01
    -13.074  0.0000E+00  0.0000E+00  0.2000E+00  0.8000E-01
    -12.953  0.0000E+00  0.0000E+00  0.2000E+00  0.8000E-01
    -12.831  0.0000E+00  0.0000E+00  0.2000E+00  0.8000E-01
    -12.709  0.0000E+00  0.0000E+00  0.2000E+00  0.8000E-01
    -12.588  0.0000E+00  0.0000E+00  0.2000E+00  0.8000E-01
    -12.466  0.0000E+00  0.3290E+00  0.2000E+00  0.1200E+00
    -12.345  0.0000E+00  0.0000E+00  0.2000E+00  0.1200E+00
    -12.223  0.0000E+00  0.0000E+00  0.2000E+00  0.1200E+00
    -12.102  0.0000E+00  0.0000E+00  0.2000E+00  0.1200E+00
    -11.980  0.0000E+00  0.0000E+00  0.2000E+00  0.1200E+00
    -11.859  0.0000E+00  0.0000E+00  0.2000E+00  0.1200E+00
    -11.737  0.0000E+00  0.0000E+00  0.2000E+00  0.1200E+00
    -11.615  0.0000E+00  0.0000E+00  0.2000E+00  0.1200E+00
    -11.494  0.0000E+00  0.1108E-06  0.2000E+00  0.1200E+00
    -11.372  0.0000E+00  0.0000E+00  0.2000E+00  0.2000E+00
    -11.251  0.0000E+00  0.0000E+00  0.2000E+00  0.2000E+00
    -11.129  0.0000E+00  0.0000E+00  0.2000E+00  0.2000E+00
    -11.008  0.0000E+00  0.0000E+00  0.2000E+00  0.2000E+00
    -10.886  0.0000E+00  0.0000E+00  0.2000E+00  0.2000E+00
    -10.764  0.0000E+00  0.0000E+00  0.2000E+00  0.2000E+00
    -10.643  0.0000E+00  0.0000E+00  0.2000E+00  0.2000E+00
    -10.521  0.0000E+00  0.0000E+00  0.2000E+00  0.2000E+00
    -10.400  0.0000E+00  0.0000E+00  0.2000E+00  0.2000E+00
    -10.278  0.0000E+00  0.0000E+00  0.2000E+00  0.2000E+00
    -10.157  0.0000E+00  0.0000E+00  0.2000E+00  0.2000E+00
    -10.035  0.0000E+00  0.0000E+00  0.2000E+00  0.2000E+00
     -9.914  0.0000E+00  0.0000E+00  0.2000E+00  0.2000E+00
     -9.792  0.0000E+00  0.0000E+00  0.2000E+00  0.2000E+00
     -9.670  0.0000E+00  0.0000E+00  0.2000E+00  0.2000E+00
     -9.549  0.0000E+00  0.0000E+00  0.2000E+00  0.2000E+00
     -9.427  0.0000E+00  0.0000E+00  0.2000E+00  0.2000E+00
     -9.306  0.0000E+00  0.0000E+00  0.2000E+00  0.2000E+00
     -9.184  0.0000E+00  0.0000E+00  0.2000E+00  0.2000E+00
     -9.063  0.0000E+00  0.0000E+00  0.2000E+00  0.2000E+00
     -8.941  0.0000E+00  0.0000E+00  0.2000E+00  0.2000E+00
     -8.819  0.0000E+00  0.0000E+00  0.2000E+00  0.2000E+00
     -8.698  0.0000E+00  0.0000E+00  0.2000E+00  0.2000E+00
     -8.576  0.0000E+00  0.0000E+00  0.2000E+00  0.2000E+00
     -8.455  0.0000E+00  0.0000E+00  0.2000E+00  0.2000E+00
     -8.333  0.0000E+00  0.0000E+00  0.2000E+00  0.2000E+00
     -8.212  0.0000E+00  0.0000E+00  0.2000E+00  0.2000E+00
     -8.090  0.0000E+00  0.0000E+00  0.2000E+00  0.2000E+00
     -7.968  0.0000E+00  0.0000E+00  0.2000E+00  0.2000E+00
     -7.847  0.0000E+00  0.0000E+00  0.2000E+00  0.2000E+00
     -7.725  0.0000E+00  0.0000E+00  0.2000E+00  0.2000E+00
     -7.604  0.0000E+00  0.0000E+00  0.2000E+00  0.2000E+00
     -7.482  0.0000E+00  0.0000E+00  0.2000E+00  0.2000E+00
     -7.361  0.0000E+00  0.0000E+00  0.2000E+00  0.2000E+00
     -7.239  0.0000E+00  0.0000E+00  0.2000E+00  0.2000E+00
     -7.118  0.0000E+00  0.0000E+00  0.2000E+00  0.2000E+00
     -6.996  0.4440E-02  0.0000E+00  0.2005E+00  0.2000E+00
     -6.874  0.0000E+00  0.0000E+00  0.2800E+00  0.2000E+00
     -6.753  0.0000E+00  0.0000E+00  0.2800E+00  0.2000E+00
     -6.631  0.0000E+00  0.0000E+00  0.2800E+00  0.2000E+00
     -6.510  0.0000E+00  0.0000E+00  0.2800E+00  0.2000E+00
     -6.388  0.0000E+00  0.0000E+00  0.2800E+00  0.2000E+00
     -6.267  0.0000E+00  0.0000E+00  0.2800E+00  0.2000E+00
     -6.145  0.0000E+00  0.0000E+00  0.2800E+00  0.2000E+00
     -6.023  0.0000E+00  0.0000E+00  0.2800E+00  0.2000E+00
     -5.902  0.0000E+00  0.0000E+00  0.2800E+00  0.2000E+00
     -5.780  0.0000E+00  0.0000E+00  0.2800E+00  0.2000E+00
     -5.659  0.0000E+00  0.0000E+00  0.2800E+00  0.2000E+00
     -5.537  0.0000E+00  0.0000E+00  0.2800E+00  0.2000E+00
     -5.416  0.0000E+00  0.0000E+00  0.2800E+00  0.2000E+00
     -5.294  0.0000E+00  0.0000E+00  0.2800E+00  0.2000E+00
     -5.173  0.0000E+00  0.0000E+00  0.2800E+00  0.2000E+00
     -5.051  0.0000E+00  0.0000E+00  0.2800E+00  0.2000E+00
     -4.929  0.0000E+00  0.0000E+00  0.2800E+00  0.2000E+00
     -4.808  0.0000E+00  0.0000E+00  0.2800E+00  0.2000E+00
     -4.686  0.0000E+00  0.5646E+00  0.2800E+00  0.2686E+00
     -4.565  0.0000E+00  0.0000E+00  0.2800E+00  0.2800E+00
     -4.443  0.0000E+00  0.0000E+00  0.2800E+00  0.2800E+00
     -4.322  0.0000E+00  0.0000E+00  0.2800E+00  0.2800E+00
     -4.200  0.0000E+00  0.0000E+00  0.2800E+00  0.2800E+00
     -4.078  0.0000E+00  0.0000E+00  0.2800E+00  0.2800E+00
     -3.957  0.0000E+00  0.0000E+00  0.2800E+00  0.2800E+00
     -3.835  0.0000E+00  0.0000E+00  0.2800E+00  0.2800E+00
     -3.714  0.0000E+00  0.0000E+00  0.2800E+00  0.2800E+00
     -3.592  0.0000E+00  0.0000E+00  0.2800E+00  0.2800E+00
     -3.471  0.0000E+00  0.0000E+00  0.2800E+00  0.2800E+00
     -3.349  0.0000E+00  0.0000E+00  0.2800E+00  0.2800E+00
     -3.228  0.0000E+00  0.0000E+00  0.2800E+00  0.2800E+00
     -3.106  0.0000E+00  0.0000E+00  0.2800E+00  0.2800E+00
     -2.984  0.0000E+00  0.0000E+00  0.2800E+00  0.2800E+00
     -2.863  0.0000E+00  0.0000E+00  0.2800E+00  0.2800E+00
     -2.741  0.0000E+00  0.0000E+00  0.2800E+00  0.2800E+00
     -2.620  0.0000E+00  0.0000E+00  0.2800E+00  0.2800E+00
     -2.498  0.0000E+00  0.0000E+00  0.2800E+00  0.2800E+00
     -2.377  0.0000E+00  0.0000E+00  0.2800E+00  0.2800E+00
     -2.255  0.0000E+00  0.0000E+00  0.2800E+00  0.2800E+00
     -2.133  0.0000E+00  0.0000E+00  0.2800E+00  0.2800E+00
     -2.012  0.0000E+00  0.0000E+00  0.2800E+00  0.2800E+00
     -1.890  0.0000E+00  0.0000E+00  0.2800E+00  0.2800E+00
     -1.769  0.0000E+00  0.0000E+00  0.2800E+00  0.2800E+00
     -1.647  0.0000E+00  0.0000E+00  0.2800E+00  0.2800E+00
     -1.526  0.0000E+00  0.0000E+00  0.2800E+00  0.2800E+00
     -1.404  0.0000E+00  0.0000E+00  0.2800E+00  0.2800E+00
     -1.283  0.0000E+00  0.0000E+00  0.2800E+00  0.2800E+00
     -1.161  0.0000E+00  0.0000E+00  0.2800E+00  0.2800E+00
     -1.039  0.0000E+00  0.0000E+00  0.2800E+00  0.2800E+00
     -0.918  0.0000E+00  0.0000E+00  0.2800E+00  0.2800E+00
     -0.796  0.0000E+00  0.0000E+00  0.2800E+00  0.2800E+00
     -0.675  0.0000E+00  0.0000E+00  0.2800E+00  0.2800E+00
     -0.553  0.0000E+00  0.0000E+00  0.2800E+00  0.2800E+00
     -0.432  0.0000E+00  0.0000E+00  0.2800E+00  0.2800E+00
     -0.310  0.0000E+00  0.0000E+00  0.2800E+00  0.2800E+00
     -0.188  0.3290E+00  0.1998E-13  0.3200E+00  0.2800E+00
     -0.067  0.0000E+00  0.3290E+00  0.3200E+00  0.3200E+00
      0.055  0.0000E+00  0.0000E+00  0.3200E+00  0.3200E+00
      0.176  0.0000E+00  0.0000E+00  0.3200E+00  0.3200E+00
      0.298  0.7650E-05  0.0000E+00  0.3200E+00  0.3200E+00
      0.419  0.3290E+00  0.3282E+00  0.4000E+00  0.3599E+00
      0.541  0.5826E+00  0.2440E+00  0.4708E+00  0.3897E+00
      0.662  0.0000E+00  0.3290E+00  0.4800E+00  0.4800E+00
      0.784  0.0000E+00  0.0000E+00  0.4800E+00  0.4800E+00
      0.906  0.0000E+00  0.0000E+00  0.4800E+00  0.4800E+00
      1.027  0.0000E+00  0.0000E+00  0.4800E+00  0.4800E+00
      1.149  0.0000E+00  0.0000E+00  0.4800E+00  0.4800E+00
      1.270  0.0000E+00  0.0000E+00  0.4800E+00  0.4800E+00
      1.392  0.0000E+00  0.0000E+00  0.4800E+00  0.4800E+00
      1.513  0.0000E+00  0.0000E+00  0.4800E+00  0.4800E+00
      1.635  0.0000E+00  0.0000E+00  0.4800E+00  0.4800E+00
      1.757  0.0000E+00  0.0000E+00  0.4800E+00  0.4800E+00
      1.878  0.0000E+00  0.0000E+00  0.4800E+00  0.4800E+00
      2.000  0.0000E+00  0.0000E+00  0.4800E+00  0.4800E+00
      2.121  0.0000E+00  0.0000E+00  0.4800E+00  0.4800E+00
      2.243  0.0000E+00  0.0000E+00  0.4800E+00  0.4800E+00
