<?xml version="1.0" encoding="ISO-8859-1"?>
<modeling>
 <generator>
  <i name="program" type="string">vasp </i>
  <i name="version" type="string">5.4.1  </i>
  <i name="subversion" type="string">24Jun15 (build Jun  1 2016 10:54:20) complex                          parallel </i>
  <i name="platform" type="string">IFC91_ompi </i>
  <i name="date" type="string">2017 08 25 </i>
  <i name="time" type="string">17:35:48 </i>
 </generator>
 <incar>
  <i type="string" name="PREC">normal</i>
  <i type="string" name="ALGO"> all</i>
  <i name="EDIFF">      0.00000001</i>
  <i name="ENCUT">    700.00000000</i>
  <i type="int" name="NEDOS">  2000</i>
  <i type="int" name="ISMEAR">    -5</i>
  <i name="KSPACING">      0.20000000</i>
  <i type="logical" name="KGAMMA"> T  </i>
  <i type="int" name="NWRITE">     2</i>
  <i type="logical" name="LWAVE"> F  </i>
  <i type="logical" name="LCHARG"> F  </i>
  <i type="logical" name="LORBIT"> F  </i>
  <i type="logical" name="LASPH"> T  </i>
  <v type="int" name="KPOINT_BSE">    -1     0     0     0</v>
  <i type="string" name="METAGGA"> RTPSS</i>
  <i type="logical" name="LASPH"> T  </i>
 </incar>
 <kpoints>
  <generation param="Gamma">
   <v type="int" name="divisions">       8        8        8 </v>
   <v name="usershift">      0.00000000       0.00000000       0.00000000 </v>
   <v name="genvec1">      0.12500000       0.00000000       0.00000000 </v>
   <v name="genvec2">      0.00000000       0.12500000       0.00000000 </v>
   <v name="genvec3">      0.00000000       0.00000000       0.12500000 </v>
   <v name="shift">      0.00000000       0.00000000       0.00000000 </v>
  </generation>
  <varray name="kpointlist" >
   <v>       0.00000000       0.00000000       0.00000000 </v>
   <v>       0.12500000       0.00000000       0.00000000 </v>
   <v>       0.25000000       0.00000000       0.00000000 </v>
   <v>       0.37500000       0.00000000       0.00000000 </v>
   <v>       0.50000000       0.00000000       0.00000000 </v>
   <v>       0.12500000       0.12500000       0.00000000 </v>
   <v>       0.25000000       0.12500000       0.00000000 </v>
   <v>       0.37500000       0.12500000       0.00000000 </v>
   <v>       0.50000000       0.12500000       0.00000000 </v>
   <v>       0.25000000       0.25000000       0.00000000 </v>
   <v>       0.37500000       0.25000000       0.00000000 </v>
   <v>       0.50000000       0.25000000       0.00000000 </v>
   <v>       0.37500000       0.37500000       0.00000000 </v>
   <v>       0.50000000       0.37500000       0.00000000 </v>
   <v>       0.50000000       0.50000000       0.00000000 </v>
   <v>       0.12500000       0.12500000       0.12500000 </v>
   <v>       0.25000000       0.12500000       0.12500000 </v>
   <v>       0.37500000       0.12500000       0.12500000 </v>
   <v>       0.50000000       0.12500000       0.12500000 </v>
   <v>       0.25000000       0.25000000       0.12500000 </v>
   <v>       0.37500000       0.25000000       0.12500000 </v>
   <v>       0.50000000       0.25000000       0.12500000 </v>
   <v>       0.37500000       0.37500000       0.12500000 </v>
   <v>       0.50000000       0.37500000       0.12500000 </v>
   <v>       0.50000000       0.50000000       0.12500000 </v>
   <v>       0.25000000       0.25000000       0.25000000 </v>
   <v>       0.37500000       0.25000000       0.25000000 </v>
   <v>       0.50000000       0.25000000       0.25000000 </v>
   <v>       0.37500000       0.37500000       0.25000000 </v>
   <v>       0.50000000       0.37500000       0.25000000 </v>
   <v>       0.50000000       0.50000000       0.25000000 </v>
   <v>       0.37500000       0.37500000       0.37500000 </v>
   <v>       0.50000000       0.37500000       0.37500000 </v>
   <v>       0.50000000       0.50000000       0.37500000 </v>
   <v>       0.50000000       0.50000000       0.50000000 </v>
  </varray>
  <varray name="weights" >
   <v>       0.00195312 </v>
   <v>       0.01171875 </v>
   <v>       0.01171875 </v>
   <v>       0.01171875 </v>
   <v>       0.00585938 </v>
   <v>       0.02343750 </v>
   <v>       0.04687500 </v>
   <v>       0.04687500 </v>
   <v>       0.02343750 </v>
   <v>       0.02343750 </v>
   <v>       0.04687500 </v>
   <v>       0.02343750 </v>
   <v>       0.02343750 </v>
   <v>       0.02343750 </v>
   <v>       0.00585938 </v>
   <v>       0.01562500 </v>
   <v>       0.04687500 </v>
   <v>       0.04687500 </v>
   <v>       0.02343750 </v>
   <v>       0.04687500 </v>
   <v>       0.09375000 </v>
   <v>       0.04687500 </v>
   <v>       0.04687500 </v>
   <v>       0.04687500 </v>
   <v>       0.01171875 </v>
   <v>       0.01562500 </v>
   <v>       0.04687500 </v>
   <v>       0.02343750 </v>
   <v>       0.04687500 </v>
   <v>       0.04687500 </v>
   <v>       0.01171875 </v>
   <v>       0.01562500 </v>
   <v>       0.02343750 </v>
   <v>       0.01171875 </v>
   <v>       0.00195312 </v>
  </varray>
  <varray name="tetrahedronlist"  type="int" >
   <v type="int" >       12        1        2        2        6 </v>
   <v type="int" >       12        2        2        6        6 </v>
   <v type="int" >       12        2        6        6       16 </v>
   <v type="int" >       12        2        3        6        7 </v>
   <v type="int" >       12        2        6        6        7 </v>
   <v type="int" >       12        6        6        7       16 </v>
   <v type="int" >       12        3        6        7        7 </v>
   <v type="int" >       24        6        7        7       17 </v>
   <v type="int" >       24        6        7       16       17 </v>
   <v type="int" >       12        3        4        7        8 </v>
   <v type="int" >       12        3        7        7        8 </v>
   <v type="int" >       12        7        7        8       17 </v>
   <v type="int" >       12        4        7        8        8 </v>
   <v type="int" >       12        7        8        8       18 </v>
   <v type="int" >       12        7        8       17       18 </v>
   <v type="int" >       12        4        5        8        9 </v>
   <v type="int" >       12        4        8        8        9 </v>
   <v type="int" >       12        8        8        9       18 </v>
   <v type="int" >       12        5        8        9        9 </v>
   <v type="int" >       12        8        9        9       19 </v>
   <v type="int" >       12        8        9       18       19 </v>
   <v type="int" >       12        6        7       10       16 </v>
   <v type="int" >       12        7       10       16       17 </v>
   <v type="int" >       12       10       16       17       20 </v>
   <v type="int" >       12        7        8       11       17 </v>
   <v type="int" >       12        7       10       11       17 </v>
   <v type="int" >       12       10       11       17       20 </v>
   <v type="int" >       12        8       11       17       18 </v>
   <v type="int" >       12       11       17       18       21 </v>
   <v type="int" >       12       11       17       20       21 </v>
   <v type="int" >       12        8        9       12       18 </v>
   <v type="int" >       12        8       11       12       18 </v>
   <v type="int" >       12       11       12       18       21 </v>
   <v type="int" >       12        9       12       18       19 </v>
   <v type="int" >       12       12       18       19       22 </v>
   <v type="int" >       12       12       18       21       22 </v>
   <v type="int" >       12        8        9       11       19 </v>
   <v type="int" >       12        9       11       12       19 </v>
   <v type="int" >       12       11       12       19       22 </v>
   <v type="int" >       12        8       11       18       19 </v>
   <v type="int" >       12       11       18       19       21 </v>
   <v type="int" >       12       11       19       21       22 </v>
   <v type="int" >       12        7        8       10       18 </v>
   <v type="int" >       12        8       10       11       18 </v>
   <v type="int" >       12       10       11       18       21 </v>
   <v type="int" >       12        7       10       17       18 </v>
   <v type="int" >       12       10       17       18       20 </v>
   <v type="int" >       12       10       18       20       21 </v>
   <v type="int" >       12        7        7       10       17 </v>
   <v type="int" >       12        7       10       17       20 </v>
   <v type="int" >       12        7       16       17       17 </v>
   <v type="int" >       12        7       17       17       20 </v>
   <v type="int" >       12        2        3        6       16 </v>
   <v type="int" >       12        3        6        7       16 </v>
   <v type="int" >       12        3        7       16       17 </v>
   <v type="int" >       12       10       11       13       20 </v>
   <v type="int" >       12       11       13       20       21 </v>
   <v type="int" >       12       13       20       21       23 </v>
   <v type="int" >       12       11       12       14       21 </v>
   <v type="int" >       12       11       13       14       21 </v>
   <v type="int" >       12       13       14       21       23 </v>
   <v type="int" >       12       12       14       21       22 </v>
   <v type="int" >       12       14       21       22       24 </v>
   <v type="int" >       12       14       21       23       24 </v>
   <v type="int" >       12       11       12       13       22 </v>
   <v type="int" >       12       12       13       14       22 </v>
   <v type="int" >       12       13       14       22       24 </v>
   <v type="int" >       12       11       13       21       22 </v>
   <v type="int" >       12       13       21       22       23 </v>
   <v type="int" >       12       13       22       23       24 </v>
   <v type="int" >       12       10       11       11       21 </v>
   <v type="int" >       12       11       11       13       21 </v>
   <v type="int" >       12       11       13       21       23 </v>
   <v type="int" >       12       10       11       20       21 </v>
   <v type="int" >       12       11       20       21       21 </v>
   <v type="int" >       12       11       21       21       23 </v>
   <v type="int" >       12        7        8       10       20 </v>
   <v type="int" >       12        8       10       11       20 </v>
   <v type="int" >       12        8       11       20       21 </v>
   <v type="int" >       12        7        8       17       20 </v>
   <v type="int" >       12        8       17       18       20 </v>
   <v type="int" >       12        8       18       20       21 </v>
   <v type="int" >       12        3        4        7       17 </v>
   <v type="int" >       12        4        7        8       17 </v>
   <v type="int" >       12        4        8       17       18 </v>
   <v type="int" >       12       13       14       15       23 </v>
   <v type="int" >       12       14       15       23       24 </v>
   <v type="int" >       12       15       23       24       25 </v>
   <v type="int" >       12       13       14       14       24 </v>
   <v type="int" >       12       14       14       15       24 </v>
   <v type="int" >       12       14       15       24       25 </v>
   <v type="int" >       12       13       14       23       24 </v>
   <v type="int" >       12       14       23       24       24 </v>
   <v type="int" >       12       14       24       24       25 </v>
   <v type="int" >       12       11       12       13       23 </v>
   <v type="int" >       12       12       13       14       23 </v>
   <v type="int" >       12       12       14       23       24 </v>
   <v type="int" >       12       11       12       21       23 </v>
   <v type="int" >       12       12       21       22       23 </v>
   <v type="int" >       12       12       22       23       24 </v>
   <v type="int" >       12        8        9       11       21 </v>
   <v type="int" >       12        9       11       12       21 </v>
   <v type="int" >       12        9       12       21       22 </v>
   <v type="int" >       12        8        9       18       21 </v>
   <v type="int" >       12        9       18       19       21 </v>
   <v type="int" >       12        9       19       21       22 </v>
   <v type="int" >       12        4        5        8       18 </v>
   <v type="int" >       12        5        8        9       18 </v>
   <v type="int" >       12        5        9       18       19 </v>
   <v type="int" >       12       13       14       15       25 </v>
   <v type="int" >       12       13       14       24       25 </v>
   <v type="int" >       12       13       23       24       25 </v>
   <v type="int" >       12       11       12       14       24 </v>
   <v type="int" >       12       11       13       14       24 </v>
   <v type="int" >       12       11       13       23       24 </v>
   <v type="int" >       12       11       12       22       24 </v>
   <v type="int" >       12       11       21       22       24 </v>
   <v type="int" >       12       11       21       23       24 </v>
   <v type="int" >       12        8        9       12       22 </v>
   <v type="int" >       12        8       11       12       22 </v>
   <v type="int" >       12        8       11       21       22 </v>
   <v type="int" >       12        8        9       19       22 </v>
   <v type="int" >       12        8       18       19       22 </v>
   <v type="int" >       12        8       18       21       22 </v>
   <v type="int" >       12        4        5        9       19 </v>
   <v type="int" >       12        4        8        9       19 </v>
   <v type="int" >       12        4        8       18       19 </v>
   <v type="int" >       12       10       11       13       23 </v>
   <v type="int" >       12       10       11       21       23 </v>
   <v type="int" >       12       10       20       21       23 </v>
   <v type="int" >       12        7        8       11       21 </v>
   <v type="int" >       12        7       10       11       21 </v>
   <v type="int" >       12        7       10       20       21 </v>
   <v type="int" >       12        7        8       18       21 </v>
   <v type="int" >       12        7       17       18       21 </v>
   <v type="int" >       12        7       17       20       21 </v>
   <v type="int" >       12        3        4        8       18 </v>
   <v type="int" >       12        3        7        8       18 </v>
   <v type="int" >       12        3        7       17       18 </v>
   <v type="int" >       12        6        7       10       20 </v>
   <v type="int" >       12        6        7       17       20 </v>
   <v type="int" >       12        6       16       17       20 </v>
   <v type="int" >       12        2        3        7       17 </v>
   <v type="int" >       12        2        6        7       17 </v>
   <v type="int" >       12        2        6       16       17 </v>
   <v type="int" >       12        1        2        6       16 </v>
   <v type="int" >       12       16       17       17       20 </v>
   <v type="int" >       12       17       17       20       20 </v>
   <v type="int" >       12       17       20       20       26 </v>
   <v type="int" >       12       17       18       20       21 </v>
   <v type="int" >       12       17       20       20       21 </v>
   <v type="int" >       12       20       20       21       26 </v>
   <v type="int" >       12       18       20       21       21 </v>
   <v type="int" >       24       20       21       21       27 </v>
   <v type="int" >       24       20       21       26       27 </v>
   <v type="int" >       12       18       19       21       22 </v>
   <v type="int" >       12       18       21       21       22 </v>
   <v type="int" >       12       21       21       22       27 </v>
   <v type="int" >       12       19       21       22       22 </v>
   <v type="int" >       12       21       22       22       28 </v>
   <v type="int" >       12       21       22       27       28 </v>
   <v type="int" >       12       20       21       23       26 </v>
   <v type="int" >       12       21       23       26       27 </v>
   <v type="int" >       12       23       26       27       29 </v>
   <v type="int" >       12       21       22       24       27 </v>
   <v type="int" >       12       21       23       24       27 </v>
   <v type="int" >       12       23       24       27       29 </v>
   <v type="int" >       12       22       24       27       28 </v>
   <v type="int" >       12       24       27       28       30 </v>
   <v type="int" >       12       24       27       29       30 </v>
   <v type="int" >       12       21       22       23       28 </v>
   <v type="int" >       12       22       23       24       28 </v>
   <v type="int" >       12       23       24       28       30 </v>
   <v type="int" >       12       21       23       27       28 </v>
   <v type="int" >       12       23       27       28       29 </v>
   <v type="int" >       12       23       28       29       30 </v>
   <v type="int" >       12       21       21       23       27 </v>
   <v type="int" >       12       21       23       27       29 </v>
   <v type="int" >       12       21       26       27       27 </v>
   <v type="int" >       12       21       27       27       29 </v>
   <v type="int" >       12       17       18       20       26 </v>
   <v type="int" >       12       18       20       21       26 </v>
   <v type="int" >       12       18       21       26       27 </v>
   <v type="int" >       12       23       24       25       29 </v>
   <v type="int" >       12       24       25       29       30 </v>
   <v type="int" >       12       25       29       30       31 </v>
   <v type="int" >       12       23       24       24       30 </v>
   <v type="int" >       12       24       24       25       30 </v>
   <v type="int" >       12       24       25       30       31 </v>
   <v type="int" >       12       23       24       29       30 </v>
   <v type="int" >       12       24       29       30       30 </v>
   <v type="int" >       12       24       30       30       31 </v>
   <v type="int" >       12       21       22       23       29 </v>
   <v type="int" >       12       22       23       24       29 </v>
   <v type="int" >       12       22       24       29       30 </v>
   <v type="int" >       12       21       22       27       29 </v>
   <v type="int" >       12       22       27       28       29 </v>
   <v type="int" >       12       22       28       29       30 </v>
   <v type="int" >       12       18       19       21       27 </v>
   <v type="int" >       12       19       21       22       27 </v>
   <v type="int" >       12       19       22       27       28 </v>
   <v type="int" >       12       23       24       25       31 </v>
   <v type="int" >       12       23       24       30       31 </v>
   <v type="int" >       12       23       29       30       31 </v>
   <v type="int" >       12       21       22       24       30 </v>
   <v type="int" >       12       21       23       24       30 </v>
   <v type="int" >       12       21       23       29       30 </v>
   <v type="int" >       12       21       22       28       30 </v>
   <v type="int" >       12       21       27       28       30 </v>
   <v type="int" >       12       21       27       29       30 </v>
   <v type="int" >       12       18       19       22       28 </v>
   <v type="int" >       12       18       21       22       28 </v>
   <v type="int" >       12       18       21       27       28 </v>
   <v type="int" >       12       20       21       23       29 </v>
   <v type="int" >       12       20       21       27       29 </v>
   <v type="int" >       12       20       26       27       29 </v>
   <v type="int" >       12       17       18       21       27 </v>
   <v type="int" >       12       17       20       21       27 </v>
   <v type="int" >       12       17       20       26       27 </v>
   <v type="int" >       12       16       17       20       26 </v>
   <v type="int" >       12       26       27       27       29 </v>
   <v type="int" >       12       27       27       29       29 </v>
   <v type="int" >       12       27       29       29       32 </v>
   <v type="int" >       12       27       28       29       30 </v>
   <v type="int" >       12       27       29       29       30 </v>
   <v type="int" >       12       29       29       30       32 </v>
   <v type="int" >       12       28       29       30       30 </v>
   <v type="int" >       24       29       30       30       33 </v>
   <v type="int" >       24       29       30       32       33 </v>
   <v type="int" >       12       29       30       31       32 </v>
   <v type="int" >       12       30       31       32       33 </v>
   <v type="int" >       12       31       32       33       34 </v>
   <v type="int" >       12       30       30       31       33 </v>
   <v type="int" >       12       30       31       33       34 </v>
   <v type="int" >       12       30       32       33       33 </v>
   <v type="int" >       12       30       33       33       34 </v>
   <v type="int" >       12       27       28       29       32 </v>
   <v type="int" >       12       28       29       30       32 </v>
   <v type="int" >       12       28       30       32       33 </v>
   <v type="int" >       12       29       30       31       34 </v>
   <v type="int" >       12       29       30       33       34 </v>
   <v type="int" >       12       29       32       33       34 </v>
   <v type="int" >       12       27       28       30       33 </v>
   <v type="int" >       12       27       29       30       33 </v>
   <v type="int" >       12       27       29       32       33 </v>
   <v type="int" >       12       26       27       29       32 </v>
   <v type="int" >       12       32       33       33       34 </v>
   <v type="int" >       12       33       33       34       34 </v>
   <v type="int" >       12       33       34       34       35 </v>
   <v type="int" >       12       32       33       34       35 </v>
  </varray>
  <i name="volumeweight">      0.00032552 </i>
 </kpoints>
 <parameters>
  <separator name="general" >
   <i type="string" name="SYSTEM">unknown system</i>
   <i type="logical" name="LCOMPAT"> F  </i>
  </separator>
  <separator name="electronic" >
   <i type="string" name="PREC">normal</i>
   <i name="ENMAX">    700.00000000</i>
   <i name="ENAUG">    605.39200000</i>
   <i name="EDIFF">      0.00000001</i>
   <i type="int" name="IALGO">    58</i>
   <i type="int" name="IWAVPR">    10</i>
   <i type="int" name="NBANDS">    24</i>
   <i name="NELECT">     32.00000000</i>
   <i type="int" name="TURBO">     0</i>
   <i type="int" name="IRESTART">     0</i>
   <i type="int" name="NREBOOT">     0</i>
   <i type="int" name="NMIN">     0</i>
   <i name="EREF">      0.00000000</i>
   <separator name="electronic smearing" >
    <i type="int" name="ISMEAR">    -5</i>
    <i name="SIGMA">      0.20000000</i>
    <i name="KSPACING">      0.20000000</i>
    <i type="logical" name="KGAMMA"> T  </i>
   </separator>
   <separator name="electronic projectors" >
    <i type="logical" name="LREAL"> F  </i>
    <v name="ROPT">      0.00000000      0.00000000</v>
    <i type="int" name="LMAXPAW">  -100</i>
    <i type="int" name="LMAXMIX">     2</i>
    <i type="logical" name="NLSPLINE"> F  </i>
   </separator>
   <separator name="electronic startup" >
    <i type="int" name="ISTART">     0</i>
    <i type="int" name="ICHARG">     2</i>
    <i type="int" name="INIWAV">     1</i>
   </separator>
   <separator name="electronic spin" >
    <i type="int" name="ISPIN">     1</i>
    <i type="logical" name="LNONCOLLINEAR"> F  </i>
    <v name="MAGMOM">      1.00000000      1.00000000      1.00000000      1.00000000      1.00000000      1.00000000      1.00000000      1.00000000</v>
    <i name="NUPDOWN">     -1.00000000</i>
    <i type="logical" name="LSORBIT"> F  </i>
    <v name="SAXIS">      0.00000000      0.00000000      1.00000000</v>
    <i type="logical" name="LSPIRAL"> F  </i>
    <v name="QSPIRAL">      0.00000000      0.00000000      0.00000000</v>
    <i type="logical" name="LZEROZ"> F  </i>
   </separator>
   <separator name="electronic exchange-correlation" >
    <i type="logical" name="LASPH"> T  </i>
    <i type="logical" name="LMETAGGA"> F  </i>
   </separator>
   <separator name="electronic convergence" >
    <i type="int" name="NELM">    60</i>
    <i type="int" name="NELMDL">    -5</i>
    <i type="int" name="NELMIN">     2</i>
    <i name="ENINI">    700.00000000</i>
    <separator name="electronic convergence detail" >
     <i type="logical" name="LDIAG"> T  </i>
     <i type="logical" name="LSUBROT"> F  </i>
     <i name="WEIMIN">      0.00000000</i>
     <i name="EBREAK">      0.00000000</i>
     <i name="DEPER">      0.30000000</i>
     <i type="int" name="NRMM">     4</i>
     <i name="TIME">      0.40000000</i>
    </separator>
   </separator>
   <separator name="electronic mixer" >
    <i name="AMIX">      0.40000000</i>
    <i name="BMIX">      1.00000000</i>
    <i name="AMIN">      0.10000000</i>
    <i name="AMIX_MAG">      1.60000000</i>
    <i name="BMIX_MAG">      1.00000000</i>
    <separator name="electronic mixer details" >
     <i type="int" name="IMIX">     4</i>
     <i type="logical" name="MIXFIRST"> F  </i>
     <i type="int" name="MAXMIX">   -45</i>
     <i name="WC">    100.00000000</i>
     <i type="int" name="INIMIX">     1</i>
     <i type="int" name="MIXPRE">     1</i>
     <i type="int" name="MREMOVE">     5</i>
    </separator>
   </separator>
   <separator name="electronic dipolcorrection" >
    <i type="logical" name="LDIPOL"> F  </i>
    <i type="logical" name="LMONO"> F  </i>
    <i type="int" name="IDIPOL">     0</i>
    <i name="EPSILON">      1.00000000</i>
    <v name="DIPOL">   -100.00000000   -100.00000000   -100.00000000</v>
    <i name="EFIELD">      0.00000000</i>
   </separator>
  </separator>
  <separator name="grids" >
   <i type="int" name="NGX">    28</i>
   <i type="int" name="NGY">    28</i>
   <i type="int" name="NGZ">    28</i>
   <i type="int" name="NGXF">    56</i>
   <i type="int" name="NGYF">    56</i>
   <i type="int" name="NGZF">    56</i>
   <i type="logical" name="ADDGRID"> F  </i>
  </separator>
  <separator name="ionic" >
   <i type="int" name="NSW">     0</i>
   <i type="int" name="IBRION">    -1</i>
   <i type="int" name="ISIF">     2</i>
   <i name="PSTRESS">      0.00000000</i>
   <i name="EDIFFG">      0.00000010</i>
   <i type="int" name="NFREE">     0</i>
   <i name="POTIM">      0.50000000</i>
   <i name="SMASS">     -3.00000000</i>
   <i name="SCALEE">      1.00000000</i>
  </separator>
  <separator name="ionic md" >
   <i name="TEBEG">      0.00010000</i>
   <i name="TEEND">      0.00010000</i>
   <i type="int" name="NBLOCK">     1</i>
   <i type="int" name="KBLOCK">     1</i>
   <i type="int" name="NPACO">   256</i>
   <i name="APACO">     16.00000000</i>
  </separator>
  <separator name="symmetry" >
   <i type="int" name="ISYM">     2</i>
   <i name="SYMPREC">      0.00001000</i>
  </separator>
  <separator name="dos" >
   <i type="logical" name="LORBIT"> T  </i>
   <v name="RWIGS">     -1.00000000     -1.00000000</v>
   <i type="int" name="NEDOS">  2000</i>
   <i name="EMIN">     10.00000000</i>
   <i name="EMAX">    -10.00000000</i>
   <i name="EFERMI">      0.00000000</i>
  </separator>
  <separator name="writing" >
   <i type="int" name="NWRITE">     2</i>
   <i type="logical" name="LWAVE"> F  </i>
   <i type="logical" name="LCHARG"> F  </i>
   <i type="logical" name="LPARD"> F  </i>
   <i type="logical" name="LVTOT"> F  </i>
   <i type="logical" name="LVHAR"> F  </i>
   <i type="logical" name="LELF"> F  </i>
   <i type="logical" name="LOPTICS"> F  </i>
   <v name="STM">      0.00000000      0.00000000      0.00000000      0.00000000      0.00000000      0.00000000      0.00000000</v>
  </separator>
  <separator name="performance" >
   <i type="int" name="NPAR">     4</i>
   <i type="int" name="NSIM">     4</i>
   <i type="int" name="NBLK">    -1</i>
   <i type="logical" name="LPLANE"> T  </i>
   <i type="logical" name="LSCALAPACK"> T  </i>
   <i type="logical" name="LSCAAWARE"> F  </i>
   <i type="logical" name="LSCALU"> F  </i>
   <i type="logical" name="LASYNC"> F  </i>
   <i type="logical" name="LORBITALREAL"> F  </i>
  </separator>
  <separator name="miscellaneous" >
   <i type="int" name="IDIOT">     3</i>
   <i type="logical" name="LMUSIC"> F  </i>
   <v name="POMASS">     24.30500000     16.00000000</v>
   <v name="DARWINR">      0.00000000      0.00000000</v>
   <v name="DARWINV">      1.00000000      1.00000000</v>
   <i type="logical" name="LCORR"> T  </i>
  </separator>
  <i type="logical" name="GGA_COMPAT"> T  </i>
  <i type="logical" name="LBERRY"> F  </i>
  <i type="int" name="ICORELEVEL">     0</i>
  <i type="logical" name="LDAU"> F  </i>
  <i type="int" name="I_CONSTRAINED_M">     0</i>
  <separator name="electronic exchange-correlation" >
   <i type="string" name="GGA">--</i>
   <i type="int" name="VOSKOWN">     0</i>
   <i type="logical" name="LHFCALC"> F  </i>
   <i type="string" name="PRECFOCK"></i>
   <i type="logical" name="LSYMGRAD"> F  </i>
   <i type="logical" name="LHFONE"> F  </i>
   <i type="logical" name="LRHFCALC"> F  </i>
   <i type="logical" name="LTHOMAS"> F  </i>
   <i type="logical" name="LMODELHF"> F  </i>
   <i name="ENCUT4O">     -1.00000000</i>
   <i type="int" name="EXXOEP">     0</i>
   <i type="int" name="FOURORBIT">     0</i>
   <i name="AEXX">      0.00000000</i>
   <i name="HFALPHA">      0.00000000</i>
   <i name="MCALPHA">      0.00000000</i>
   <i name="ALDAX">      1.00000000</i>
   <i name="AGGAX">      1.00000000</i>
   <i name="ALDAC">      1.00000000</i>
   <i name="AGGAC">      1.00000000</i>
   <i type="int" name="NKREDX">     1</i>
   <i type="int" name="NKREDY">     1</i>
   <i type="int" name="NKREDZ">     1</i>
   <i type="logical" name="SHIFTRED"> F  </i>
   <i type="logical" name="ODDONLY"> F  </i>
   <i type="logical" name="EVENONLY"> F  </i>
   <i type="int" name="LMAXFOCK">     0</i>
   <i type="int" name="NMAXFOCKAE">     0</i>
   <i type="logical" name="LFOCKAEDFT"> F  </i>
   <i name="HFSCREEN">      0.00000000</i>
   <i name="HFSCREENC">      0.00000000</i>
   <i type="int" name="NBANDSGWLOW">     0</i>
  </separator>
  <separator name="vdW DFT" >
   <i type="logical" name="LUSE_VDW"> F  </i>
   <i name="Zab_VDW">     -0.84910000</i>
   <i name="PARAM1">      0.12340000</i>
   <i name="PARAM2">      1.00000000</i>
   <i name="PARAM3">      0.00000000</i>
  </separator>
  <separator name="model GW" >
   <i type="int" name="MODEL_GW">     0</i>
   <i name="MODEL_EPS0">      5.56734026</i>
   <i name="MODEL_ALPHA">      1.00000000</i>
  </separator>
  <separator name="linear response parameters" >
   <i type="logical" name="LEPSILON"> F  </i>
   <i type="logical" name="LRPA"> F  </i>
   <i type="logical" name="LNABLA"> F  </i>
   <i type="logical" name="LVEL"> F  </i>
   <i type="int" name="KINTER">     0</i>
   <i name="CSHIFT">      0.10000000</i>
   <i name="OMEGAMAX">     -1.00000000</i>
   <i name="DEG_THRESHOLD">      0.00200000</i>
  </separator>
  <separator name="orbital magnetization" >
   <i type="logical" name="NUCIND"> F  </i>
   <v name="MAGPOS">      0.00000000      0.00000000      0.00000000</v>
   <i type="logical" name="LNICSALL"> T  </i>
   <i type="logical" name="ORBITALMAG"> F  </i>
   <i type="logical" name="LMAGBLOCH"> F  </i>
   <i type="logical" name="LCHIMAG"> F  </i>
   <i type="logical" name="LGAUGE"> T  </i>
   <i type="int" name="MAGATOM">     0</i>
   <v name="MAGDIPOL">      0.00000000      0.00000000      0.00000000</v>
   <v name="AVECCONST">      0.00000000      0.00000000      0.00000000</v>
  </separator>
  <separator name="response functions" >
   <i type="logical" name="LADDER"> F  </i>
   <i type="logical" name="LFXC"> F  </i>
   <i type="logical" name="LHARTREE"> T  </i>
   <i type="int" name="IBSE">     0</i>
   <v type="int" name="KPOINT">    -1     0     0     0</v>
   <i type="logical" name="LTCTE"> F  </i>
   <i type="logical" name="LTETE"> F  </i>
   <i type="logical" name="LTRIPLET"> F  </i>
   <i type="logical" name="LFXCEPS"> F  </i>
   <i type="logical" name="LFXHEG"> F  </i>
   <i type="int" name="NATURALO">     0</i>
   <i type="logical" name="L2ORDER"> F  </i>
   <i type="logical" name="LUSEW"> F  </i>
   <i name="ENCUTGW">     -2.00000000</i>
   <i name="ENCUTGWSOFT">     -2.00000000</i>
   <i name="ENCUTLF">     -1.00000000</i>
   <i type="int" name="LMAXMP2">    -1</i>
   <i name="SCISSOR">      0.00000000</i>
   <i type="int" name="NOMEGA">     0</i>
   <i type="int" name="NOMEGAR">     0</i>
   <i type="int" name="NBANDSGW">    -1</i>
   <i type="int" name="NBANDSO">    -1</i>
   <i type="int" name="NBANDSV">    -1</i>
   <i type="int" name="NELM">     1</i>
   <i type="int" name="NELMHF">     1</i>
   <i type="int" name="DIM">     3</i>
   <i type="int" name="ANTIRES">     0</i>
   <i name="OMEGAMAX">    -30.00000000</i>
   <i name="OMEGAMIN">    -30.00000000</i>
   <i name="OMEGATL">   -200.00000000</i>
   <i type="int" name="OMEGAGRID">     0</i>
   <i name="CSHIFT">     -0.10000000</i>
   <i type="logical" name="SELFENERGY"> F  </i>
   <i type="logical" name="LSPECTRAL"> F  </i>
   <i type="logical" name="LSPECTRALGW"> F  </i>
   <i type="logical" name="LSINGLES"> F  </i>
   <i type="logical" name="LFERMIGW"> F  </i>
   <i type="logical" name="ODDONLYGW"> F  </i>
   <i type="logical" name="EVENONLYGW"> F  </i>
   <i type="int" name="NKREDLFX">     1</i>
   <i type="int" name="NKREDLFY">     1</i>
   <i type="int" name="NKREDLFZ">     1</i>
   <i type="int" name="MAXMEM">  1800</i>
   <i type="int" name="TELESCOPE">     0</i>
   <i type="int" name="TAUPAR">     1</i>
   <i type="int" name="OMEGAPAR">    -1</i>
   <i name="LAMBDA">      1.00000000</i>
  </separator>
  <separator name="External order field" >
   <i name="OFIELD_KAPPA">      0.00000000</i>
   <v name="OFIELD_K">      0.00000000      0.00000000      0.00000000</v>
   <i name="OFIELD_Q6_NEAR">      0.00000000</i>
   <i name="OFIELD_Q6_FAR">      0.00000000</i>
   <i name="OFIELD_A">      0.00000000</i>
  </separator>
 </parameters>
 <atominfo>
  <atoms>       8 </atoms>
  <types>       2 </types>
  <array name="atoms" >
   <dimension dim="1">ion</dimension>
   <field type="string">element</field>
   <field type="int">atomtype</field>
   <set>
    <rc><c>Mg</c><c>   1</c></rc>
    <rc><c>Mg</c><c>   1</c></rc>
    <rc><c>Mg</c><c>   1</c></rc>
    <rc><c>Mg</c><c>   1</c></rc>
    <rc><c>O </c><c>   2</c></rc>
    <rc><c>O </c><c>   2</c></rc>
    <rc><c>O </c><c>   2</c></rc>
    <rc><c>O </c><c>   2</c></rc>
   </set>
  </array>
  <array name="atomtypes" >
   <dimension dim="1">type</dimension>
   <field type="int">atomspertype</field>
   <field type="string">element</field>
   <field>mass</field>
   <field>valence</field>
   <field type="string">pseudopotential</field>
   <set>
    <rc><c>   4</c><c>Mg</c><c>     24.30500000</c><c>      2.00000000</c><c>  PAW_PBE Mg 13Apr2007                  </c></rc>
    <rc><c>   4</c><c>O </c><c>     16.00000000</c><c>      6.00000000</c><c>  PAW_PBE O 08Apr2002                   </c></rc>
   </set>
  </array>
 </atominfo>
 <structure name="initialpos" >
  <crystal>
   <varray name="basis" >
    <v>       4.20270429       0.00000000      -0.00000000 </v>
    <v>       0.00000000       4.20270429      -0.00000000 </v>
    <v>       0.00000000       0.00000000       4.20270429 </v>
   </varray>
   <i name="volume">     74.23120344 </i>
   <varray name="rec_basis" >
    <v>       0.23794203      -0.00000000      -0.00000000 </v>
    <v>      -0.00000000       0.23794203      -0.00000000 </v>
    <v>       0.00000000       0.00000000       0.23794203 </v>
   </varray>
  </crystal>
  <varray name="positions" >
   <v>       0.00000000       0.00000000       0.00000000 </v>
   <v>       0.00000000       0.50000000       0.50000000 </v>
   <v>       0.50000000       0.00000000       0.50000000 </v>
   <v>       0.50000000       0.50000000       0.00000000 </v>
   <v>       0.50000000       0.50000000       0.50000000 </v>
   <v>       0.50000000       0.00000000       0.00000000 </v>
   <v>       0.00000000       0.50000000       0.00000000 </v>
   <v>       0.00000000       0.00000000       0.50000000 </v>
  </varray>
 </structure>
 <calculation>
  <scstep>
   <time name="total">    5.50    5.57</time>
   <energy>
    <i name="alphaZ">     78.73679662 </i>
    <i name="ewald">  -1435.95529261 </i>
    <i name="hartreedc">   -482.74028686 </i>
    <i name="XCdc">   -200.76794419 </i>
    <i name="pawpsdc">   1648.39462992 </i>
    <i name="pawaedc">  -1451.44631518 </i>
    <i name="eentropy">      0.00000000 </i>
    <i name="bandstr">    424.94733391 </i>
    <i name="atom">   1821.62634327 </i>
    <i name="e_fr_energy">    402.79526487 </i>
    <i name="e_wo_entrp">    402.79526487 </i>
    <i name="e_0_energy">    402.79526487 </i>
   </energy>
  </scstep>
  <scstep>
   <time name="total">    3.86    3.86</time>
   <energy>
    <i name="e_fr_energy">    222.47416475 </i>
    <i name="e_wo_entrp">    222.47416475 </i>
    <i name="e_0_energy">    222.47416475 </i>
   </energy>
  </scstep>
  <scstep>
   <time name="total">    3.75    3.75</time>
   <energy>
    <i name="e_fr_energy">    214.40258021 </i>
    <i name="e_wo_entrp">    214.40258021 </i>
    <i name="e_0_energy">    214.40258021 </i>
   </energy>
  </scstep>
  <scstep>
   <time name="total">    3.64    3.64</time>
   <energy>
    <i name="e_fr_energy">    214.33292739 </i>
    <i name="e_wo_entrp">    214.33292739 </i>
    <i name="e_0_energy">    214.33292739 </i>
   </energy>
  </scstep>
  <scstep>
   <time name="total">    4.29    4.29</time>
   <energy>
    <i name="e_fr_energy">    214.33205754 </i>
    <i name="e_wo_entrp">    214.33205754 </i>
    <i name="e_0_energy">    214.33205754 </i>
   </energy>
  </scstep>
  <scstep>
   <time name="total">    9.60    9.62</time>
   <energy>
    <i name="e_fr_energy">    -31.66896219 </i>
    <i name="e_wo_entrp">    -31.66896219 </i>
    <i name="e_0_energy">    -31.66896219 </i>
   </energy>
  </scstep>
  <scstep>
   <time name="total">    9.96    9.98</time>
   <energy>
    <i name="e_fr_energy">    -54.17216073 </i>
    <i name="e_wo_entrp">    -54.17216073 </i>
    <i name="e_0_energy">    -54.17216073 </i>
   </energy>
  </scstep>
  <scstep>
   <time name="total">   10.73   10.73</time>
   <energy>
    <i name="e_fr_energy">    -59.43230461 </i>
    <i name="e_wo_entrp">    -59.43230461 </i>
    <i name="e_0_energy">    -59.43230461 </i>
   </energy>
  </scstep>
  <scstep>
   <time name="total">    9.22    9.22</time>
   <energy>
    <i name="e_fr_energy">    -60.14857935 </i>
    <i name="e_wo_entrp">    -60.14857935 </i>
    <i name="e_0_energy">    -60.14857935 </i>
   </energy>
  </scstep>
  <scstep>
   <time name="total">    8.95    8.95</time>
   <energy>
    <i name="e_fr_energy">    -60.34343637 </i>
    <i name="e_wo_entrp">    -60.34343637 </i>
    <i name="e_0_energy">    -60.34343637 </i>
   </energy>
  </scstep>
  <scstep>
   <time name="total">    8.69    8.69</time>
   <energy>
    <i name="e_fr_energy">    -60.38819381 </i>
    <i name="e_wo_entrp">    -60.38819381 </i>
    <i name="e_0_energy">    -60.38819381 </i>
   </energy>
  </scstep>
  <scstep>
   <time name="total">   10.38   10.39</time>
   <energy>
    <i name="e_fr_energy">    -60.39541565 </i>
    <i name="e_wo_entrp">    -60.39541565 </i>
    <i name="e_0_energy">    -60.39541565 </i>
   </energy>
  </scstep>
  <scstep>
   <time name="total">   10.10   10.12</time>
   <energy>
    <i name="e_fr_energy">    -60.39721260 </i>
    <i name="e_wo_entrp">    -60.39721260 </i>
    <i name="e_0_energy">    -60.39721260 </i>
   </energy>
  </scstep>
  <scstep>
   <time name="total">   10.23   10.28</time>
   <energy>
    <i name="e_fr_energy">    -60.39751767 </i>
    <i name="e_wo_entrp">    -60.39751767 </i>
    <i name="e_0_energy">    -60.39751767 </i>
   </energy>
  </scstep>
  <scstep>
   <time name="total">    9.28    9.33</time>
   <energy>
    <i name="e_fr_energy">    -60.39755718 </i>
    <i name="e_wo_entrp">    -60.39755718 </i>
    <i name="e_0_energy">    -60.39755718 </i>
   </energy>
  </scstep>
  <scstep>
   <time name="total">    9.73    9.78</time>
   <energy>
    <i name="e_fr_energy">    -60.39756298 </i>
    <i name="e_wo_entrp">    -60.39756298 </i>
    <i name="e_0_energy">    -60.39756298 </i>
   </energy>
  </scstep>
  <scstep>
   <time name="total">    8.96    9.00</time>
   <energy>
    <i name="e_fr_energy">    -60.39756333 </i>
    <i name="e_wo_entrp">    -60.39756333 </i>
    <i name="e_0_energy">    -60.39756333 </i>
   </energy>
  </scstep>
  <scstep>
   <time name="total">    8.78    8.83</time>
   <energy>
    <i name="e_fr_energy">    -60.39756339 </i>
    <i name="e_wo_entrp">    -60.39756339 </i>
    <i name="e_0_energy">    -60.39756339 </i>
   </energy>
  </scstep>
  <scstep>
   <time name="total">    9.83    9.85</time>
   <energy>
    <i name="e_fr_energy">    -60.39756340 </i>
    <i name="e_wo_entrp">    -60.39756340 </i>
    <i name="e_0_energy">    -60.39756340 </i>
   </energy>
  </scstep>
  <scstep>
   <time name="total">    8.81    8.81</time>
   <energy>
    <i name="alphaZ">     78.73679662 </i>
    <i name="ewald">  -1435.95529261 </i>
    <i name="hartreedc">   -560.96678746 </i>
    <i name="XCdc">    -80.55992591 </i>
    <i name="pawpsdc">   2188.15543369 </i>
    <i name="pawaedc">  -1987.36349706 </i>
    <i name="eentropy">      0.00000000 </i>
    <i name="bandstr">    -84.07063394 </i>
    <i name="atom">   1821.62634327 </i>
    <i name="e_fr_energy">    -60.39756340 </i>
    <i name="e_wo_entrp">    -60.39756340 </i>
    <i name="e_0_energy">    -60.39756340 </i>
   </energy>
  </scstep>
  <structure>
   <crystal>
    <varray name="basis" >
     <v>       4.20270429       0.00000000      -0.00000000 </v>
     <v>       0.00000000       4.20270429      -0.00000000 </v>
     <v>       0.00000000       0.00000000       4.20270429 </v>
    </varray>
    <i name="volume">     74.23120344 </i>
    <varray name="rec_basis" >
     <v>       0.23794203      -0.00000000      -0.00000000 </v>
     <v>      -0.00000000       0.23794203      -0.00000000 </v>
     <v>       0.00000000       0.00000000       0.23794203 </v>
    </varray>
   </crystal>
   <varray name="positions" >
    <v>       0.00000000       0.00000000       0.00000000 </v>
    <v>       0.00000000       0.50000000       0.50000000 </v>
    <v>       0.50000000       0.00000000       0.50000000 </v>
    <v>       0.50000000       0.50000000       0.00000000 </v>
    <v>       0.50000000       0.50000000       0.50000000 </v>
    <v>       0.50000000       0.00000000       0.00000000 </v>
    <v>       0.00000000       0.50000000       0.00000000 </v>
    <v>       0.00000000       0.00000000       0.50000000 </v>
   </varray>
  </structure>
  <varray name="forces" >
   <v>       0.00000000      -0.00000000      -0.00000000 </v>
   <v>      -0.00000000      -0.00000000      -0.00000000 </v>
   <v>       0.00000000       0.00000000      -0.00000000 </v>
   <v>      -0.00000000      -0.00000000       0.00000000 </v>
   <v>      -0.00000000       0.00000000       0.00000000 </v>
   <v>      -0.00000000       0.00000000       0.00000000 </v>
   <v>      -0.00000000       0.00000000       0.00000000 </v>
   <v>      -0.00000000       0.00000000       0.00000000 </v>
  </varray>
  <varray name="stress" >
   <v>      22.50643942       0.00000000       0.00000000 </v>
   <v>       0.00000000      22.50643942      -0.00000000 </v>
   <v>       0.00000000       0.00000000      22.50643942 </v>
  </varray>
  <energy>
   <i name="e_fr_energy">    -60.39756340 </i>
   <i name="e_wo_entrp">    -60.39756340 </i>
   <i name="e_0_energy">      0.00000000 </i>
  </energy>
  <time name="totalsc">  181.48  181.89</time>
  <eigenvalues>
   <array>
    <dimension dim="1">band</dimension>
    <dimension dim="2">kpoint</dimension>
    <dimension dim="3">spin</dimension>
    <field>eigene</field>
    <field>occ</field>
    <set>
     <set comment="spin 1">
      <set comment="kpoint 1">
       <r>  -14.8756    1.0000 </r>
       <r>  -13.3402    1.0000 </r>
       <r>  -13.3402    1.0000 </r>
       <r>  -13.3402    1.0000 </r>
       <r>   -1.1274    1.0000 </r>
       <r>   -1.1274    1.0000 </r>
       <r>   -1.1274    1.0000 </r>
       <r>    1.6981    1.0000 </r>
       <r>    1.6981    1.0000 </r>
       <r>    1.6981    1.0000 </r>
       <r>    1.6981    1.0000 </r>
       <r>    1.6981    1.0000 </r>
       <r>    1.6981    1.0000 </r>
       <r>    3.0855    1.0000 </r>
       <r>    3.0855    1.0000 </r>
       <r>    3.0855    1.0000 </r>
       <r>    7.9387    0.0000 </r>
       <r>   12.1930    0.0000 </r>
       <r>   12.1930    0.0000 </r>
       <r>   12.1930    0.0000 </r>
       <r>   13.4435    0.0000 </r>
       <r>   13.4435    0.0000 </r>
       <r>   13.4435    0.0000 </r>
       <r>   16.4834    0.0000 </r>
      </set>
      <set comment="kpoint 2">
       <r>  -14.8200    1.0000 </r>
       <r>  -13.4011    1.0000 </r>
       <r>  -13.3325    1.0000 </r>
       <r>  -13.3325    1.0000 </r>
       <r>   -1.0494    1.0000 </r>
       <r>   -1.0494    1.0000 </r>
       <r>   -1.0352    1.0000 </r>
       <r>    1.5398    1.0000 </r>
       <r>    1.5398    1.0000 </r>
       <r>    1.6330    1.0000 </r>
       <r>    1.6330    1.0000 </r>
       <r>    1.7424    1.0000 </r>
       <r>    1.7424    1.0000 </r>
       <r>    2.7604    1.0000 </r>
       <r>    3.0215    1.0000 </r>
       <r>    3.0215    1.0000 </r>
       <r>    8.3075    0.0000 </r>
       <r>   12.3241    0.0000 </r>
       <r>   12.4500    0.0000 </r>
       <r>   12.4500    0.0000 </r>
       <r>   13.4018    0.0000 </r>
       <r>   13.6882    0.0000 </r>
       <r>   13.6882    0.0000 </r>
       <r>   16.4308    0.0000 </r>
      </set>
      <set comment="kpoint 3">
       <r>  -14.6602    1.0000 </r>
       <r>  -13.5736    1.0000 </r>
       <r>  -13.3138    1.0000 </r>
       <r>  -13.3138    1.0000 </r>
       <r>   -0.8194    1.0000 </r>
       <r>   -0.8194    1.0000 </r>
       <r>   -0.7561    1.0000 </r>
       <r>    1.1256    1.0000 </r>
       <r>    1.1256    1.0000 </r>
       <r>    1.4792    1.0000 </r>
       <r>    1.4792    1.0000 </r>
       <r>    1.8713    1.0000 </r>
       <r>    1.8713    1.0000 </r>
       <r>    2.0136    1.0000 </r>
       <r>    2.8456    1.0000 </r>
       <r>    2.8456    1.0000 </r>
       <r>    9.1916    0.0000 </r>
       <r>   12.7170    0.0000 </r>
       <r>   13.1098    0.0000 </r>
       <r>   13.1296    0.0000 </r>
       <r>   13.1296    0.0000 </r>
       <r>   14.3537    0.0000 </r>
       <r>   14.3537    0.0000 </r>
       <r>   16.3562    0.0000 </r>
      </set>
      <set comment="kpoint 4">
       <r>  -14.4175    1.0000 </r>
       <r>  -13.8292    1.0000 </r>
       <r>  -13.2949    1.0000 </r>
       <r>  -13.2949    1.0000 </r>
       <r>   -0.4500    1.0000 </r>
       <r>   -0.4500    1.0000 </r>
       <r>   -0.2865    1.0000 </r>
       <r>    0.5846    1.0000 </r>
       <r>    0.5846    1.0000 </r>
       <r>    1.1580    1.0000 </r>
       <r>    1.3314    1.0000 </r>
       <r>    1.3314    1.0000 </r>
       <r>    2.0729    1.0000 </r>
       <r>    2.0729    1.0000 </r>
       <r>    2.5981    1.0000 </r>
       <r>    2.5981    1.0000 </r>
       <r>   10.2825    0.0000 </r>
       <r>   12.3986    0.0000 </r>
       <r>   13.3698    0.0000 </r>
       <r>   14.0196    0.0000 </r>
       <r>   14.0196    0.0000 </r>
       <r>   15.2197    0.0000 </r>
       <r>   15.2197    0.0000 </r>
       <r>   15.4319    0.0000 </r>
      </set>
      <set comment="kpoint 5">
       <r>  -14.1260    1.0000 </r>
       <r>  -14.1260    1.0000 </r>
       <r>  -13.2871    1.0000 </r>
       <r>  -13.2871    1.0000 </r>
       <r>    0.0334    1.0000 </r>
       <r>    0.0334    1.0000 </r>
       <r>    0.0334    1.0000 </r>
       <r>    0.0334    1.0000 </r>
       <r>    0.3642    1.0000 </r>
       <r>    0.3642    1.0000 </r>
       <r>    1.2714    1.0000 </r>
       <r>    1.2714    1.0000 </r>
       <r>    2.3264    1.0000 </r>
       <r>    2.3264    1.0000 </r>
       <r>    2.3264    1.0000 </r>
       <r>    2.3264    1.0000 </r>
       <r>   11.3988    0.0000 </r>
       <r>   11.3988    0.0000 </r>
       <r>   14.2780    0.0000 </r>
       <r>   14.2782    0.0000 </r>
       <r>   14.8976    0.0000 </r>
       <r>   14.8976    0.0000 </r>
       <r>   15.7012    0.0000 </r>
       <r>   15.7172    0.0000 </r>
      </set>
      <set comment="kpoint 6">
       <r>  -14.7655    1.0000 </r>
       <r>  -13.3906    1.0000 </r>
       <r>  -13.3906    1.0000 </r>
       <r>  -13.3271    1.0000 </r>
       <r>   -0.9731    1.0000 </r>
       <r>   -0.9731    1.0000 </r>
       <r>   -0.9721    1.0000 </r>
       <r>    1.2320    1.0000 </r>
       <r>    1.5869    1.0000 </r>
       <r>    1.5869    1.0000 </r>
       <r>    1.6886    1.0000 </r>
       <r>    1.6886    1.0000 </r>
       <r>    1.7522    1.0000 </r>
       <r>    2.4178    1.0000 </r>
       <r>    2.9530    1.0000 </r>
       <r>    3.0364    1.0000 </r>
       <r>    8.6190    0.0000 </r>
       <r>   12.5733    0.0000 </r>
       <r>   12.5733    0.0000 </r>
       <r>   12.6191    0.0000 </r>
       <r>   13.6271    0.0000 </r>
       <r>   13.6305    0.0000 </r>
       <r>   13.9639    0.0000 </r>
       <r>   16.3919    0.0000 </r>
      </set>
      <set comment="kpoint 7">
       <r>  -14.6092    1.0000 </r>
       <r>  -13.5559    1.0000 </r>
       <r>  -13.3641    1.0000 </r>
       <r>  -13.3152    1.0000 </r>
       <r>   -0.7918    1.0000 </r>
       <r>   -0.7439    1.0000 </r>
       <r>   -0.7373    1.0000 </r>
       <r>    0.7771    1.0000 </r>
       <r>    1.1795    1.0000 </r>
       <r>    1.5686    1.0000 </r>
       <r>    1.7197    1.0000 </r>
       <r>    1.7242    1.0000 </r>
       <r>    1.7329    1.0000 </r>
       <r>    1.8468    1.0000 </r>
       <r>    2.7646    1.0000 </r>
       <r>    2.9054    1.0000 </r>
       <r>    9.4056    0.0000 </r>
       <r>   12.9419    0.0000 </r>
       <r>   13.1248    0.0000 </r>
       <r>   13.2305    0.0000 </r>
       <r>   13.2795    0.0000 </r>
       <r>   14.2378    0.0000 </r>
       <r>   14.6529    0.0000 </r>
       <r>   16.2244    0.0000 </r>
      </set>
      <set comment="kpoint 8">
       <r>  -14.3725    1.0000 </r>
       <r>  -13.8019    1.0000 </r>
       <r>  -13.3337    1.0000 </r>
       <r>  -13.3071    1.0000 </r>
       <r>   -0.5052    1.0000 </r>
       <r>   -0.3777    1.0000 </r>
       <r>   -0.3292    1.0000 </r>
       <r>    0.3033    1.0000 </r>
       <r>    0.6459    1.0000 </r>
       <r>    0.9618    1.0000 </r>
       <r>    1.4748    1.0000 </r>
       <r>    1.5878    1.0000 </r>
       <r>    1.9391    1.0000 </r>
       <r>    2.0846    1.0000 </r>
       <r>    2.4994    1.0000 </r>
       <r>    2.6604    1.0000 </r>
       <r>   10.4260    0.0000 </r>
       <r>   12.5173    0.0000 </r>
       <r>   13.5509    0.0000 </r>
       <r>   13.8712    0.0000 </r>
       <r>   14.0857    0.0000 </r>
       <r>   15.0509    0.0000 </r>
       <r>   15.4319    0.0000 </r>
       <r>   15.4439    0.0000 </r>
      </set>
      <set comment="kpoint 9">
       <r>  -14.0891    1.0000 </r>
       <r>  -14.0891    1.0000 </r>
       <r>  -13.3123    1.0000 </r>
       <r>  -13.3123    1.0000 </r>
       <r>   -0.1333    1.0000 </r>
       <r>   -0.1333    1.0000 </r>
       <r>    0.1010    1.0000 </r>
       <r>    0.1010    1.0000 </r>
       <r>    0.2483    1.0000 </r>
       <r>    0.2483    1.0000 </r>
       <r>    1.4799    1.0000 </r>
       <r>    1.4799    1.0000 </r>
       <r>    2.2091    1.0000 </r>
       <r>    2.2091    1.0000 </r>
       <r>    2.3694    1.0000 </r>
       <r>    2.3694    1.0000 </r>
       <r>   11.5096    0.0000 </r>
       <r>   11.5096    0.0000 </r>
       <r>   14.3893    0.0000 </r>
       <r>   14.3897    0.0000 </r>
       <r>   14.6308    0.0000 </r>
       <r>   14.7265    0.0000 </r>
       <r>   15.6970    0.0000 </r>
       <r>   15.8469    0.0000 </r>
      </set>
      <set comment="kpoint 10">
       <r>  -14.4636    1.0000 </r>
       <r>  -13.5086    1.0000 </r>
       <r>  -13.5086    1.0000 </r>
       <r>  -13.3233    1.0000 </r>
       <r>   -0.6804    1.0000 </r>
       <r>   -0.6804    1.0000 </r>
       <r>   -0.5216    1.0000 </r>
       <r>    0.2979    1.0000 </r>
       <r>    1.1537    1.0000 </r>
       <r>    1.3367    1.0000 </r>
       <r>    1.3367    1.0000 </r>
       <r>    1.8054    1.0000 </r>
       <r>    1.8054    1.0000 </r>
       <r>    1.9063    1.0000 </r>
       <r>    2.5425    1.0000 </r>
       <r>    2.8940    1.0000 </r>
       <r>    9.9936    0.0000 </r>
       <r>   13.2812    0.0000 </r>
       <r>   13.5292    0.0000 </r>
       <r>   13.5292    0.0000 </r>
       <r>   13.7007    0.0000 </r>
       <r>   13.7007    0.0000 </r>
       <r>   15.2813    0.0000 </r>
       <r>   16.0898    0.0000 </r>
      </set>
      <set comment="kpoint 11">
       <r>  -14.2446    1.0000 </r>
       <r>  -13.7267    1.0000 </r>
       <r>  -13.4466    1.0000 </r>
       <r>  -13.3457    1.0000 </r>
       <r>   -0.5770    1.0000 </r>
       <r>   -0.4334    1.0000 </r>
       <r>   -0.1650    1.0000 </r>
       <r>   -0.1091    1.0000 </r>
       <r>    0.5266    1.0000 </r>
       <r>    0.8252    1.0000 </r>
       <r>    1.5836    1.0000 </r>
       <r>    1.8057    1.0000 </r>
       <r>    1.9304    1.0000 </r>
       <r>    2.1212    1.0000 </r>
       <r>    2.2324    1.0000 </r>
       <r>    2.7273    1.0000 </r>
       <r>   10.8370    0.0000 </r>
       <r>   12.8131    0.0000 </r>
       <r>   13.6538    0.0000 </r>
       <r>   14.0115    0.0000 </r>
       <r>   14.1081    0.0000 </r>
       <r>   14.2756    0.0000 </r>
       <r>   15.3977    0.0000 </r>
       <r>   15.8958    0.0000 </r>
      </set>
      <set comment="kpoint 12">
       <r>  -13.9855    1.0000 </r>
       <r>  -13.9855    1.0000 </r>
       <r>  -13.3879    1.0000 </r>
       <r>  -13.3879    1.0000 </r>
       <r>   -0.3982    1.0000 </r>
       <r>   -0.3982    1.0000 </r>
       <r>   -0.0247    1.0000 </r>
       <r>   -0.0247    1.0000 </r>
       <r>    0.2993    1.0000 </r>
       <r>    0.2993    1.0000 </r>
       <r>    1.8651    1.0000 </r>
       <r>    1.8651    1.0000 </r>
       <r>    1.8951    1.0000 </r>
       <r>    1.8951    1.0000 </r>
       <r>    2.4491    1.0000 </r>
       <r>    2.4491    1.0000 </r>
       <r>   11.8148    0.0000 </r>
       <r>   11.8148    0.0000 </r>
       <r>   14.0254    0.0000 </r>
       <r>   14.0374    0.0000 </r>
       <r>   14.6473    0.0000 </r>
       <r>   14.6484    0.0000 </r>
       <r>   15.5734    0.0000 </r>
       <r>   16.1179    0.0000 </r>
      </set>
      <set comment="kpoint 13">
       <r>  -14.0551    1.0000 </r>
       <r>  -13.6215    1.0000 </r>
       <r>  -13.6215    1.0000 </r>
       <r>  -13.4141    1.0000 </r>
       <r>   -0.5328    1.0000 </r>
       <r>   -0.5328    1.0000 </r>
       <r>   -0.4095    1.0000 </r>
       <r>    0.0587    1.0000 </r>
       <r>    0.1746    1.0000 </r>
       <r>    1.1085    1.0000 </r>
       <r>    1.1085    1.0000 </r>
       <r>    1.8640    1.0000 </r>
       <r>    2.1374    1.0000 </r>
       <r>    2.1734    1.0000 </r>
       <r>    2.1734    1.0000 </r>
       <r>    2.6748    1.0000 </r>
       <r>   11.4660    0.0000 </r>
       <r>   13.1420    0.0000 </r>
       <r>   13.1420    0.0000 </r>
       <r>   13.5122    0.0000 </r>
       <r>   14.5614    0.0000 </r>
       <r>   14.5617    0.0000 </r>
       <r>   15.1924    0.0000 </r>
       <r>   16.3128    0.0000 </r>
      </set>
      <set comment="kpoint 14">
       <r>  -13.8353    1.0000 </r>
       <r>  -13.8353    1.0000 </r>
       <r>  -13.5101    1.0000 </r>
       <r>  -13.5101    1.0000 </r>
       <r>   -0.5455    1.0000 </r>
       <r>   -0.5455    1.0000 </r>
       <r>   -0.3168    1.0000 </r>
       <r>   -0.3168    1.0000 </r>
       <r>    0.6144    1.0000 </r>
       <r>    0.6144    1.0000 </r>
       <r>    1.4689    1.0000 </r>
       <r>    1.4689    1.0000 </r>
       <r>    2.2003    1.0000 </r>
       <r>    2.2003    1.0000 </r>
       <r>    2.4816    1.0000 </r>
       <r>    2.4816    1.0000 </r>
       <r>   12.2543    0.0000 </r>
       <r>   12.2543    0.0000 </r>
       <r>   13.3764    0.0000 </r>
       <r>   13.3764    0.0000 </r>
       <r>   14.8925    0.0000 </r>
       <r>   14.8927    0.0000 </r>
       <r>   15.0274    0.0000 </r>
       <r>   15.0298    0.0000 </r>
      </set>
      <set comment="kpoint 15">
       <r>  -13.6670    1.0000 </r>
       <r>  -13.6670    1.0000 </r>
       <r>  -13.6670    1.0000 </r>
       <r>  -13.6670    1.0000 </r>
       <r>   -0.5133    1.0000 </r>
       <r>   -0.5133    1.0000 </r>
       <r>   -0.5133    1.0000 </r>
       <r>   -0.5133    1.0000 </r>
       <r>    1.0193    1.0000 </r>
       <r>    1.0193    1.0000 </r>
       <r>    1.0193    1.0000 </r>
       <r>    1.0193    1.0000 </r>
       <r>    2.4085    1.0000 </r>
       <r>    2.4085    1.0000 </r>
       <r>    2.4085    1.0000 </r>
       <r>    2.4085    1.0000 </r>
       <r>   12.7805    0.0000 </r>
       <r>   12.7805    0.0000 </r>
       <r>   12.7805    0.0000 </r>
       <r>   12.7805    0.0000 </r>
       <r>   15.0188    0.0000 </r>
       <r>   15.0188    0.0000 </r>
       <r>   15.0188    0.0000 </r>
       <r>   15.0188    0.0000 </r>
      </set>
      <set comment="kpoint 16">
       <r>  -14.7122    1.0000 </r>
       <r>  -13.3825    1.0000 </r>
       <r>  -13.3825    1.0000 </r>
       <r>  -13.3825    1.0000 </r>
       <r>   -0.9162    1.0000 </r>
       <r>   -0.9162    1.0000 </r>
       <r>   -0.9162    1.0000 </r>
       <r>    1.3115    1.0000 </r>
       <r>    1.3115    1.0000 </r>
       <r>    1.3115    1.0000 </r>
       <r>    1.7938    1.0000 </r>
       <r>    1.7938    1.0000 </r>
       <r>    1.7938    1.0000 </r>
       <r>    2.0985    1.0000 </r>
       <r>    2.9780    1.0000 </r>
       <r>    2.9780    1.0000 </r>
       <r>    8.8829    0.0000 </r>
       <r>   12.7198    0.0000 </r>
       <r>   12.7198    0.0000 </r>
       <r>   12.7198    0.0000 </r>
       <r>   13.8957    0.0000 </r>
       <r>   13.9036    0.0000 </r>
       <r>   13.9036    0.0000 </r>
       <r>   16.3599    0.0000 </r>
      </set>
      <set comment="kpoint 17">
       <r>  -14.5595    1.0000 </r>
       <r>  -13.5404    1.0000 </r>
       <r>  -13.3627    1.0000 </r>
       <r>  -13.3627    1.0000 </r>
       <r>   -0.7552    1.0000 </r>
       <r>   -0.7552    1.0000 </r>
       <r>   -0.7335    1.0000 </r>
       <r>    0.9063    1.0000 </r>
       <r>    0.9063    1.0000 </r>
       <r>    1.4547    1.0000 </r>
       <r>    1.5322    1.0000 </r>
       <r>    1.7691    1.0000 </r>
       <r>    1.7691    1.0000 </r>
       <r>    1.9144    1.0000 </r>
       <r>    2.8171    1.0000 </r>
       <r>    2.8606    1.0000 </r>
       <r>    9.5784    0.0000 </r>
       <r>   12.9352    0.0000 </r>
       <r>   13.1683    0.0000 </r>
       <r>   13.1685    0.0000 </r>
       <r>   13.6240    0.0000 </r>
       <r>   14.5593    0.0000 </r>
       <r>   14.5719    0.0000 </r>
       <r>   16.3372    0.0000 </r>
      </set>
      <set comment="kpoint 18">
       <r>  -14.3289    1.0000 </r>
       <r>  -13.7766    1.0000 </r>
       <r>  -13.3429    1.0000 </r>
       <r>  -13.3429    1.0000 </r>
       <r>   -0.5302    1.0000 </r>
       <r>   -0.5302    1.0000 </r>
       <r>   -0.3957    1.0000 </r>
       <r>    0.5198    1.0000 </r>
       <r>    0.5198    1.0000 </r>
       <r>    0.7474    1.0000 </r>
       <r>    1.6689    1.0000 </r>
       <r>    1.6689    1.0000 </r>
       <r>    1.8525    1.0000 </r>
       <r>    2.1025    1.0000 </r>
       <r>    2.5817    1.0000 </r>
       <r>    2.5893    1.0000 </r>
       <r>   10.5221    0.0000 </r>
       <r>   12.5126    0.0000 </r>
       <r>   13.8052    0.0000 </r>
       <r>   13.8148    0.0000 </r>
       <r>   13.8151    0.0000 </r>
       <r>   15.3318    0.0000 </r>
       <r>   15.3493    0.0000 </r>
       <r>   15.4444    0.0000 </r>
      </set>
      <set comment="kpoint 19">
       <r>  -14.0539    1.0000 </r>
       <r>  -14.0539    1.0000 </r>
       <r>  -13.3346    1.0000 </r>
       <r>  -13.3346    1.0000 </r>
       <r>   -0.3865    1.0000 </r>
       <r>   -0.3865    1.0000 </r>
       <r>    0.1069    1.0000 </r>
       <r>    0.1069    1.0000 </r>
       <r>    0.3221    1.0000 </r>
       <r>    0.3221    1.0000 </r>
       <r>    1.6165    1.0000 </r>
       <r>    1.6165    1.0000 </r>
       <r>    2.2216    1.0000 </r>
       <r>    2.2216    1.0000 </r>
       <r>    2.3378    1.0000 </r>
       <r>    2.3378    1.0000 </r>
       <r>   11.5545    0.0000 </r>
       <r>   11.5546    0.0000 </r>
       <r>   14.2311    0.0000 </r>
       <r>   14.2386    0.0000 </r>
       <r>   14.5240    0.0000 </r>
       <r>   14.5254    0.0000 </r>
       <r>   15.9505    0.0000 </r>
       <r>   16.0033    0.0000 </r>
      </set>
      <set comment="kpoint 20">
       <r>  -14.4179    1.0000 </r>
       <r>  -13.4995    1.0000 </r>
       <r>  -13.4995    1.0000 </r>
       <r>  -13.3626    1.0000 </r>
       <r>   -0.7252    1.0000 </r>
       <r>   -0.7252    1.0000 </r>
       <r>   -0.6751    1.0000 </r>
       <r>    0.5743    1.0000 </r>
       <r>    0.8857    1.0000 </r>
       <r>    1.2264    1.0000 </r>
       <r>    1.2264    1.0000 </r>
       <r>    1.9134    1.0000 </r>
       <r>    1.9134    1.0000 </r>
       <r>    1.9394    1.0000 </r>
       <r>    2.6519    1.0000 </r>
       <r>    2.8513    1.0000 </r>
       <r>   10.0738    0.0000 </r>
       <r>   13.1452    0.0000 </r>
       <r>   13.1453    0.0000 </r>
       <r>   13.2223    0.0000 </r>
       <r>   14.2764    0.0000 </r>
       <r>   14.2768    0.0000 </r>
       <r>   15.2055    0.0000 </r>
       <r>   16.0192    0.0000 </r>
      </set>
      <set comment="kpoint 21">
       <r>  -14.2056    1.0000 </r>
       <r>  -13.7072    1.0000 </r>
       <r>  -13.4476    1.0000 </r>
       <r>  -13.3731    1.0000 </r>
       <r>   -0.7095    1.0000 </r>
       <r>   -0.6370    1.0000 </r>
       <r>   -0.5586    1.0000 </r>
       <r>    0.2875    1.0000 </r>
       <r>    0.4589    1.0000 </r>
       <r>    0.9025    1.0000 </r>
       <r>    1.6253    1.0000 </r>
       <r>    1.8916    1.0000 </r>
       <r>    1.9658    1.0000 </r>
       <r>    2.1395    1.0000 </r>
       <r>    2.3739    1.0000 </r>
       <r>    2.6869    1.0000 </r>
       <r>   10.8211    0.0000 </r>
       <r>   12.5943    0.0000 </r>
       <r>   13.4451    0.0000 </r>
       <r>   13.4685    0.0000 </r>
       <r>   14.3568    0.0000 </r>
       <r>   14.9957    0.0000 </r>
       <r>   15.4307    0.0000 </r>
       <r>   15.9509    0.0000 </r>
      </set>
      <set comment="kpoint 22">
       <r>  -13.9555    1.0000 </r>
       <r>  -13.9555    1.0000 </r>
       <r>  -13.4018    1.0000 </r>
       <r>  -13.4018    1.0000 </r>
       <r>   -0.6726    1.0000 </r>
       <r>   -0.6726    1.0000 </r>
       <r>   -0.2157    1.0000 </r>
       <r>   -0.2157    1.0000 </r>
       <r>    0.6110    1.0000 </r>
       <r>    0.6110    1.0000 </r>
       <r>    1.9190    1.0000 </r>
       <r>    1.9190    1.0000 </r>
       <r>    2.0233    1.0000 </r>
       <r>    2.0233    1.0000 </r>
       <r>    2.4182    1.0000 </r>
       <r>    2.4182    1.0000 </r>
       <r>   11.7120    0.0000 </r>
       <r>   11.7121    0.0000 </r>
       <r>   13.6027    0.0000 </r>
       <r>   13.6057    0.0000 </r>
       <r>   14.8285    0.0000 </r>
       <r>   14.8320    0.0000 </r>
       <r>   15.9669    0.0000 </r>
       <r>   16.4525    0.0000 </r>
      </set>
      <set comment="kpoint 23">
       <r>  -14.0234    1.0000 </r>
       <r>  -13.6115    1.0000 </r>
       <r>  -13.6115    1.0000 </r>
       <r>  -13.4295    1.0000 </r>
       <r>   -0.7737    1.0000 </r>
       <r>   -0.7294    1.0000 </r>
       <r>   -0.7294    1.0000 </r>
       <r>   -0.1876    1.0000 </r>
       <r>    0.6274    1.0000 </r>
       <r>    1.2985    1.0000 </r>
       <r>    1.2985    1.0000 </r>
       <r>    2.0605    1.0000 </r>
       <r>    2.1564    1.0000 </r>
       <r>    2.1892    1.0000 </r>
       <r>    2.1892    1.0000 </r>
       <r>    2.6528    1.0000 </r>
       <r>   11.3277    0.0000 </r>
       <r>   12.7745    0.0000 </r>
       <r>   12.7745    0.0000 </r>
       <r>   13.1789    0.0000 </r>
       <r>   14.9160    0.0000 </r>
       <r>   14.9165    0.0000 </r>
       <r>   15.3160    0.0000 </r>
       <r>   16.3691    0.0000 </r>
      </set>
      <set comment="kpoint 24">
       <r>  -13.8137    1.0000 </r>
       <r>  -13.8137    1.0000 </r>
       <r>  -13.5123    1.0000 </r>
       <r>  -13.5123    1.0000 </r>
       <r>   -0.8167    1.0000 </r>
       <r>   -0.8167    1.0000 </r>
       <r>   -0.5491    1.0000 </r>
       <r>   -0.5491    1.0000 </r>
       <r>    0.9386    1.0000 </r>
       <r>    0.9386    1.0000 </r>
       <r>    1.6899    1.0000 </r>
       <r>    1.6899    1.0000 </r>
       <r>    2.2153    1.0000 </r>
       <r>    2.2153    1.0000 </r>
       <r>    2.4701    1.0000 </r>
       <r>    2.4701    1.0000 </r>
       <r>   12.0064    0.0000 </r>
       <r>   12.0064    0.0000 </r>
       <r>   12.9754    0.0000 </r>
       <r>   12.9754    0.0000 </r>
       <r>   15.1168    0.0000 </r>
       <r>   15.1171    0.0000 </r>
       <r>   15.3142    0.0000 </r>
       <r>   15.3508    0.0000 </r>
      </set>
      <set comment="kpoint 25">
       <r>  -13.6566    1.0000 </r>
       <r>  -13.6566    1.0000 </r>
       <r>  -13.6566    1.0000 </r>
       <r>  -13.6566    1.0000 </r>
       <r>   -0.7714    1.0000 </r>
       <r>   -0.7714    1.0000 </r>
       <r>   -0.7714    1.0000 </r>
       <r>   -0.7714    1.0000 </r>
       <r>    1.3093    1.0000 </r>
       <r>    1.3093    1.0000 </r>
       <r>    1.3093    1.0000 </r>
       <r>    1.3093    1.0000 </r>
       <r>    2.4085    1.0000 </r>
       <r>    2.4085    1.0000 </r>
       <r>    2.4085    1.0000 </r>
       <r>    2.4085    1.0000 </r>
       <r>   12.4328    0.0000 </r>
       <r>   12.4328    0.0000 </r>
       <r>   12.4328    0.0000 </r>
       <r>   12.4328    0.0000 </r>
       <r>   15.2794    0.0000 </r>
       <r>   15.2794    0.0000 </r>
       <r>   15.2794    0.0000 </r>
       <r>   15.2794    0.0000 </r>
      </set>
      <set comment="kpoint 26">
       <r>  -14.2882    1.0000 </r>
       <r>  -13.4773    1.0000 </r>
       <r>  -13.4773    1.0000 </r>
       <r>  -13.4773    1.0000 </r>
       <r>   -0.8437    1.0000 </r>
       <r>   -0.8437    1.0000 </r>
       <r>   -0.8437    1.0000 </r>
       <r>    0.3444    1.0000 </r>
       <r>    1.1057    1.0000 </r>
       <r>    1.1057    1.0000 </r>
       <r>    1.1057    1.0000 </r>
       <r>    2.0352    1.0000 </r>
       <r>    2.0352    1.0000 </r>
       <r>    2.0352    1.0000 </r>
       <r>    2.7315    1.0000 </r>
       <r>    2.7315    1.0000 </r>
       <r>   10.3486    0.0000 </r>
       <r>   12.9304    0.0000 </r>
       <r>   12.9304    0.0000 </r>
       <r>   12.9304    0.0000 </r>
       <r>   14.9693    0.0000 </r>
       <r>   14.9813    0.0000 </r>
       <r>   14.9899    0.0000 </r>
       <r>   15.8297    0.0000 </r>
      </set>
      <set comment="kpoint 27">
       <r>  -14.0957    1.0000 </r>
       <r>  -13.6552    1.0000 </r>
       <r>  -13.4550    1.0000 </r>
       <r>  -13.4550    1.0000 </r>
       <r>   -0.9725    1.0000 </r>
       <r>   -0.9725    1.0000 </r>
       <r>   -0.8351    1.0000 </r>
       <r>   -0.1977    1.0000 </r>
       <r>    1.0770    1.0000 </r>
       <r>    1.0770    1.0000 </r>
       <r>    1.6789    1.0000 </r>
       <r>    2.0697    1.0000 </r>
       <r>    2.0697    1.0000 </r>
       <r>    2.1833    1.0000 </r>
       <r>    2.5594    1.0000 </r>
       <r>    2.5778    1.0000 </r>
       <r>   10.8563    0.0000 </r>
       <r>   12.3154    0.0000 </r>
       <r>   12.8938    0.0000 </r>
       <r>   12.8938    0.0000 </r>
       <r>   14.9534    0.0000 </r>
       <r>   15.4896    0.0000 </r>
       <r>   15.5875    0.0000 </r>
       <r>   15.7488    0.0000 </r>
      </set>
      <set comment="kpoint 28">
       <r>  -13.8725    1.0000 </r>
       <r>  -13.8725    1.0000 </r>
       <r>  -13.4457    1.0000 </r>
       <r>  -13.4457    1.0000 </r>
       <r>   -1.0278    1.0000 </r>
       <r>   -1.0278    1.0000 </r>
       <r>   -0.6129    1.0000 </r>
       <r>   -0.6129    1.0000 </r>
       <r>    1.0828    1.0000 </r>
       <r>    1.0828    1.0000 </r>
       <r>    2.0668    1.0000 </r>
       <r>    2.0668    1.0000 </r>
       <r>    2.1991    1.0000 </r>
       <r>    2.1991    1.0000 </r>
       <r>    2.3664    1.0000 </r>
       <r>    2.3664    1.0000 </r>
       <r>   11.5546    0.0000 </r>
       <r>   11.5547    0.0000 </r>
       <r>   12.9041    0.0000 </r>
       <r>   12.9041    0.0000 </r>
       <r>   15.1993    0.0000 </r>
       <r>   15.2102    0.0000 </r>
       <r>   15.8550    0.0000 </r>
       <r>   16.9684    0.0000 </r>
      </set>
      <set comment="kpoint 29">
       <r>  -13.9358    1.0000 </r>
       <r>  -13.5872    1.0000 </r>
       <r>  -13.5872    1.0000 </r>
       <r>  -13.4780    1.0000 </r>
       <r>   -1.1772    1.0000 </r>
       <r>   -1.0953    1.0000 </r>
       <r>   -1.0953    1.0000 </r>
       <r>   -0.6655    1.0000 </r>
       <r>    1.2894    1.0000 </r>
       <r>    1.6427    1.0000 </r>
       <r>    1.6427    1.0000 </r>
       <r>    2.2109    1.0000 </r>
       <r>    2.2335    1.0000 </r>
       <r>    2.2335    1.0000 </r>
       <r>    2.3739    1.0000 </r>
       <r>    2.5908    1.0000 </r>
       <r>   11.0830    0.0000 </r>
       <r>   12.2001    0.0000 </r>
       <r>   12.2001    0.0000 </r>
       <r>   12.4903    0.0000 </r>
       <r>   15.4425    0.0000 </r>
       <r>   15.4473    0.0000 </r>
       <r>   15.5557    0.0000 </r>
       <r>   15.8387    0.0000 </r>
      </set>
      <set comment="kpoint 30">
       <r>  -13.7558    1.0000 </r>
       <r>  -13.7558    1.0000 </r>
       <r>  -13.5232    1.0000 </r>
       <r>  -13.5232    1.0000 </r>
       <r>   -1.2250    1.0000 </r>
       <r>   -1.2250    1.0000 </r>
       <r>   -0.9862    1.0000 </r>
       <r>   -0.9862    1.0000 </r>
       <r>    1.4969    1.0000 </r>
       <r>    1.4969    1.0000 </r>
       <r>    2.0816    1.0000 </r>
       <r>    2.0816    1.0000 </r>
       <r>    2.2590    1.0000 </r>
       <r>    2.2590    1.0000 </r>
       <r>    2.4359    1.0000 </r>
       <r>    2.4359    1.0000 </r>
       <r>   11.5516    0.0000 </r>
       <r>   11.5516    0.0000 </r>
       <r>   12.2613    0.0000 </r>
       <r>   12.2613    0.0000 </r>
       <r>   15.5183    0.0000 </r>
       <r>   15.5183    0.0000 </r>
       <r>   15.6963    0.0000 </r>
       <r>   15.6963    0.0000 </r>
      </set>
      <set comment="kpoint 31">
       <r>  -13.6313    1.0000 </r>
       <r>  -13.6313    1.0000 </r>
       <r>  -13.6313    1.0000 </r>
       <r>  -13.6313    1.0000 </r>
       <r>   -1.2096    1.0000 </r>
       <r>   -1.2096    1.0000 </r>
       <r>   -1.2096    1.0000 </r>
       <r>   -1.2096    1.0000 </r>
       <r>    1.8293    1.0000 </r>
       <r>    1.8293    1.0000 </r>
       <r>    1.8293    1.0000 </r>
       <r>    1.8293    1.0000 </r>
       <r>    2.4080    1.0000 </r>
       <r>    2.4080    1.0000 </r>
       <r>    2.4080    1.0000 </r>
       <r>    2.4080    1.0000 </r>
       <r>   11.7897    0.0000 </r>
       <r>   11.7897    0.0000 </r>
       <r>   11.7897    0.0000 </r>
       <r>   11.7897    0.0000 </r>
       <r>   15.6867    0.0000 </r>
       <r>   15.6867    0.0000 </r>
       <r>   15.6867    0.0000 </r>
       <r>   15.6867    0.0000 </r>
      </set>
      <set comment="kpoint 32">
       <r>  -13.8121    1.0000 </r>
       <r>  -13.5626    1.0000 </r>
       <r>  -13.5626    1.0000 </r>
       <r>  -13.5626    1.0000 </r>
       <r>   -1.3849    1.0000 </r>
       <r>   -1.3849    1.0000 </r>
       <r>   -1.3849    1.0000 </r>
       <r>   -1.0967    1.0000 </r>
       <r>    1.8943    1.0000 </r>
       <r>    1.8943    1.0000 </r>
       <r>    1.8943    1.0000 </r>
       <r>    2.2942    1.0000 </r>
       <r>    2.2942    1.0000 </r>
       <r>    2.2942    1.0000 </r>
       <r>    2.4999    1.0000 </r>
       <r>    2.4999    1.0000 </r>
       <r>   11.0092    0.0000 </r>
       <r>   11.7841    0.0000 </r>
       <r>   11.7841    0.0000 </r>
       <r>   11.7841    0.0000 </r>
       <r>   15.7416    0.0000 </r>
       <r>   15.7932    0.0000 </r>
       <r>   15.7932    0.0000 </r>
       <r>   15.7932    0.0000 </r>
      </set>
      <set comment="kpoint 33">
       <r>  -13.6792    1.0000 </r>
       <r>  -13.6792    1.0000 </r>
       <r>  -13.5523    1.0000 </r>
       <r>  -13.5523    1.0000 </r>
       <r>   -1.4915    1.0000 </r>
       <r>   -1.4915    1.0000 </r>
       <r>   -1.3552    1.0000 </r>
       <r>   -1.3552    1.0000 </r>
       <r>    1.9762    1.0000 </r>
       <r>    1.9762    1.0000 </r>
       <r>    2.3284    1.0000 </r>
       <r>    2.3284    1.0000 </r>
       <r>    2.3299    1.0000 </r>
       <r>    2.3299    1.0000 </r>
       <r>    2.3954    1.0000 </r>
       <r>    2.3954    1.0000 </r>
       <r>   11.2495    0.0000 </r>
       <r>   11.2495    0.0000 </r>
       <r>   11.6355    0.0000 </r>
       <r>   11.6355    0.0000 </r>
       <r>   15.8192    0.0000 </r>
       <r>   15.8192    0.0000 </r>
       <r>   15.9115    0.0000 </r>
       <r>   15.9115    0.0000 </r>
      </set>
      <set comment="kpoint 34">
       <r>  -13.6059    1.0000 </r>
       <r>  -13.6059    1.0000 </r>
       <r>  -13.6059    1.0000 </r>
       <r>  -13.6059    1.0000 </r>
       <r>   -1.5384    1.0000 </r>
       <r>   -1.5384    1.0000 </r>
       <r>   -1.5384    1.0000 </r>
       <r>   -1.5384    1.0000 </r>
       <r>    2.2485    1.0000 </r>
       <r>    2.2485    1.0000 </r>
       <r>    2.2485    1.0000 </r>
       <r>    2.2485    1.0000 </r>
       <r>    2.4076    1.0000 </r>
       <r>    2.4076    1.0000 </r>
       <r>    2.4076    1.0000 </r>
       <r>    2.4076    1.0000 </r>
       <r>   11.2698    0.0000 </r>
       <r>   11.2698    0.0000 </r>
       <r>   11.2698    0.0000 </r>
       <r>   11.2698    0.0000 </r>
       <r>   15.9514    0.0000 </r>
       <r>   15.9514    0.0000 </r>
       <r>   15.9514    0.0000 </r>
       <r>   15.9514    0.0000 </r>
      </set>
      <set comment="kpoint 35">
       <r>  -13.5952    1.0000 </r>
       <r>  -13.5952    1.0000 </r>
       <r>  -13.5952    1.0000 </r>
       <r>  -13.5952    1.0000 </r>
       <r>   -1.6572    1.0000 </r>
       <r>   -1.6572    1.0000 </r>
       <r>   -1.6572    1.0000 </r>
       <r>   -1.6572    1.0000 </r>
       <r>    2.4076    1.0000 </r>
       <r>    2.4076    1.0000 </r>
       <r>    2.4076    1.0000 </r>
       <r>    2.4076    1.0000 </r>
       <r>    2.4076    1.0000 </r>
       <r>    2.4076    1.0000 </r>
       <r>    2.4076    1.0000 </r>
       <r>    2.4076    1.0000 </r>
       <r>   11.0736    0.0000 </r>
       <r>   11.0736    0.0000 </r>
       <r>   11.0736    0.0000 </r>
       <r>   11.0736    0.0000 </r>
       <r>   16.0390    0.0000 </r>
       <r>   16.0390    0.0000 </r>
       <r>   16.0390    0.0000 </r>
       <r>   16.0390    0.0000 </r>
      </set>
     </set>
    </set>
   </array>
  </eigenvalues>
  <separator name="orbital magnetization" >
   <v name="MAGDIPOLOUT">      0.00000000      0.00000000      0.00000000</v>
  </separator>
  <dos>
   <i name="efermi">      3.10002419 </i>
   <total>
    <array>
     <dimension dim="1">gridpoints</dimension>
     <dimension dim="2">spin</dimension>
     <field>energy</field>
     <field>total</field>
     <field>integrated</field>
     <set>
      <set comment="spin 1">
       <r>   -16.8756     0.0000     0.0000 </r>
       <r>   -16.8577     0.0000     0.0000 </r>
       <r>   -16.8398     0.0000     0.0000 </r>
       <r>   -16.8219     0.0000     0.0000 </r>
       <r>   -16.8039     0.0000     0.0000 </r>
       <r>   -16.7860     0.0000     0.0000 </r>
       <r>   -16.7681     0.0000     0.0000 </r>
       <r>   -16.7501     0.0000     0.0000 </r>
       <r>   -16.7322     0.0000     0.0000 </r>
       <r>   -16.7143     0.0000     0.0000 </r>
       <r>   -16.6963     0.0000     0.0000 </r>
       <r>   -16.6784     0.0000     0.0000 </r>
       <r>   -16.6605     0.0000     0.0000 </r>
       <r>   -16.6425     0.0000     0.0000 </r>
       <r>   -16.6246     0.0000     0.0000 </r>
       <r>   -16.6067     0.0000     0.0000 </r>
       <r>   -16.5888     0.0000     0.0000 </r>
       <r>   -16.5708     0.0000     0.0000 </r>
       <r>   -16.5529     0.0000     0.0000 </r>
       <r>   -16.5350     0.0000     0.0000 </r>
       <r>   -16.5170     0.0000     0.0000 </r>
       <r>   -16.4991     0.0000     0.0000 </r>
       <r>   -16.4812     0.0000     0.0000 </r>
       <r>   -16.4632     0.0000     0.0000 </r>
       <r>   -16.4453     0.0000     0.0000 </r>
       <r>   -16.4274     0.0000     0.0000 </r>
       <r>   -16.4094     0.0000     0.0000 </r>
       <r>   -16.3915     0.0000     0.0000 </r>
       <r>   -16.3736     0.0000     0.0000 </r>
       <r>   -16.3556     0.0000     0.0000 </r>
       <r>   -16.3377     0.0000     0.0000 </r>
       <r>   -16.3198     0.0000     0.0000 </r>
       <r>   -16.3019     0.0000     0.0000 </r>
       <r>   -16.2839     0.0000     0.0000 </r>
       <r>   -16.2660     0.0000     0.0000 </r>
       <r>   -16.2481     0.0000     0.0000 </r>
       <r>   -16.2301     0.0000     0.0000 </r>
       <r>   -16.2122     0.0000     0.0000 </r>
       <r>   -16.1943     0.0000     0.0000 </r>
       <r>   -16.1763     0.0000     0.0000 </r>
       <r>   -16.1584     0.0000     0.0000 </r>
       <r>   -16.1405     0.0000     0.0000 </r>
       <r>   -16.1225     0.0000     0.0000 </r>
       <r>   -16.1046     0.0000     0.0000 </r>
       <r>   -16.0867     0.0000     0.0000 </r>
       <r>   -16.0688     0.0000     0.0000 </r>
       <r>   -16.0508     0.0000     0.0000 </r>
       <r>   -16.0329     0.0000     0.0000 </r>
       <r>   -16.0150     0.0000     0.0000 </r>
       <r>   -15.9970     0.0000     0.0000 </r>
       <r>   -15.9791     0.0000     0.0000 </r>
       <r>   -15.9612     0.0000     0.0000 </r>
       <r>   -15.9432     0.0000     0.0000 </r>
       <r>   -15.9253     0.0000     0.0000 </r>
       <r>   -15.9074     0.0000     0.0000 </r>
       <r>   -15.8894     0.0000     0.0000 </r>
       <r>   -15.8715     0.0000     0.0000 </r>
       <r>   -15.8536     0.0000     0.0000 </r>
       <r>   -15.8357     0.0000     0.0000 </r>
       <r>   -15.8177     0.0000     0.0000 </r>
       <r>   -15.7998     0.0000     0.0000 </r>
       <r>   -15.7819     0.0000     0.0000 </r>
       <r>   -15.7639     0.0000     0.0000 </r>
       <r>   -15.7460     0.0000     0.0000 </r>
       <r>   -15.7281     0.0000     0.0000 </r>
[...]
        <r>  0.0749  0.0000  0.0020  0.0000  0.0013  0.0016  0.0000  0.0034  0.0000 </r>
        <r>  0.0130  0.0000  0.0003  0.0000  0.0027  0.0094  0.0000  0.0016  0.0000 </r>
        <r>  0.0000  0.0852  0.0163  0.0149  0.0000  0.0000  0.0000  0.0000  0.0000 </r>
        <r>  0.0003  0.0148  0.0939  0.0310  0.0000  0.0000  0.0000  0.0000  0.0000 </r>
        <r>  0.0000  0.0310  0.0164  0.0148  0.0000  0.0000  0.0000  0.0000  0.0000 </r>
        <r>  0.0001  0.0149  0.0342  0.0852  0.0000  0.0000  0.0000  0.0000  0.0000 </r>
       </set>
      </set>
      <set comment="kpoint 35">
       <set comment="band 1">
        <r>  0.0000  0.0003  0.0056  0.0002  0.0000  0.0000  0.0000  0.0000  0.0000 </r>
        <r>  0.0000  0.0056  0.0003  0.0005  0.0000  0.0000  0.0000  0.0000  0.0000 </r>
        <r>  0.0000  0.0005  0.0002  0.0056  0.0000  0.0000  0.0000  0.0000  0.0000 </r>
        <r>  0.0000  0.0002  0.0005  0.0003  0.0000  0.0000  0.0000  0.0000  0.0000 </r>
        <r>  0.0557  0.0000  0.0000  0.0000  0.0000  0.0000  0.0000  0.0000  0.0000 </r>
        <r>  0.0189  0.0000  0.0000  0.0000  0.0000  0.0000  0.0000  0.0000  0.0000 </r>
        <r>  0.0356  0.0000  0.0000  0.0000  0.0000  0.0000  0.0000  0.0000  0.0000 </r>
        <r>  0.6473  0.0000  0.0000  0.0000  0.0000  0.0000  0.0000  0.0000  0.0000 </r>
       </set>
       <set comment="band 2">
        <r>  0.0000  0.0033  0.0003  0.0004  0.0000  0.0000  0.0000  0.0000  0.0000 </r>
        <r>  0.0000  0.0003  0.0033  0.0026  0.0000  0.0000  0.0000  0.0000  0.0000 </r>
        <r>  0.0000  0.0026  0.0004  0.0003  0.0000  0.0000  0.0000  0.0000  0.0000 </r>
        <r>  0.0000  0.0004  0.0026  0.0033  0.0000  0.0000  0.0000  0.0000  0.0000 </r>
        <r>  0.3041  0.0000  0.0000  0.0000  0.0000  0.0000  0.0000  0.0000  0.0000 </r>
        <r>  0.0421  0.0000  0.0000  0.0000  0.0000  0.0000  0.0000  0.0000  0.0000 </r>
        <r>  0.3783  0.0000  0.0000  0.0000  0.0000  0.0000  0.0000  0.0000  0.0000 </r>
        <r>  0.0329  0.0000  0.0000  0.0000  0.0000  0.0000  0.0000  0.0000  0.0000 </r>
       </set>
       <set comment="band 3">
        <r>  0.0000  0.0008  0.0002  0.0031  0.0000  0.0000  0.0000  0.0000  0.0000 </r>
        <r>  0.0000  0.0002  0.0008  0.0023  0.0000  0.0000  0.0000  0.0000  0.0000 </r>
        <r>  0.0000  0.0023  0.0031  0.0002  0.0000  0.0000  0.0000  0.0000  0.0000 </r>
        <r>  0.0000  0.0031  0.0023  0.0008  0.0000  0.0000  0.0000  0.0000  0.0000 </r>
        <r>  0.2684  0.0000  0.0000  0.0000  0.0000  0.0000  0.0000  0.0000  0.0000 </r>
        <r>  0.3658  0.0000  0.0000  0.0000  0.0000  0.0000  0.0000  0.0000  0.0000 </r>
        <r>  0.0962  0.0000  0.0000  0.0000  0.0000  0.0000  0.0000  0.0000  0.0000 </r>
        <r>  0.0270  0.0000  0.0000  0.0000  0.0000  0.0000  0.0000  0.0000  0.0000 </r>
       </set>
       <set comment="band 4">
        <r>  0.0000  0.0021  0.0004  0.0028  0.0000  0.0000  0.0000  0.0000  0.0000 </r>
        <r>  0.0000  0.0004  0.0021  0.0011  0.0000  0.0000  0.0000  0.0000  0.0000 </r>
        <r>  0.0000  0.0011  0.0028  0.0004  0.0000  0.0000  0.0000  0.0000  0.0000 </r>
        <r>  0.0000  0.0028  0.0011  0.0021  0.0000  0.0000  0.0000  0.0000  0.0000 </r>
        <r>  0.1293  0.0000  0.0000  0.0000  0.0000  0.0000  0.0000  0.0000  0.0000 </r>
        <r>  0.3306  0.0000  0.0000  0.0000  0.0000  0.0000  0.0000  0.0000  0.0000 </r>
        <r>  0.2474  0.0000  0.0000  0.0000  0.0000  0.0000  0.0000  0.0000  0.0000 </r>
        <r>  0.0502  0.0000  0.0000  0.0000  0.0000  0.0000  0.0000  0.0000  0.0000 </r>
       </set>
       <set comment="band 5">
        <r>  0.0314  0.0000  0.0000  0.0000  0.0021  0.0003  0.0000  0.0002  0.0000 </r>
        <r>  0.0090  0.0000  0.0000  0.0000  0.0002  0.0011  0.0000  0.0021  0.0000 </r>
        <r>  0.0049  0.0000  0.0000  0.0000  0.0003  0.0021  0.0000  0.0011  0.0000 </r>
        <r>  0.0605  0.0000  0.0000  0.0000  0.0011  0.0002  0.0000  0.0003  0.0000 </r>
        <r>  0.0000  0.0066  0.0819  0.0122  0.0000  0.0000  0.0000  0.0000  0.0000 </r>
        <r>  0.0000  0.0819  0.0066  0.0426  0.0000  0.0000  0.0000  0.0000  0.0000 </r>
        <r>  0.0000  0.0426  0.0122  0.0819  0.0000  0.0000  0.0000  0.0000  0.0000 </r>
        <r>  0.0000  0.0122  0.0426  0.0066  0.0000  0.0000  0.0000  0.0000  0.0000 </r>
       </set>
       <set comment="band 6">
        <r>  0.0393  0.0000  0.0000  0.0000  0.0008  0.0003  0.0000  0.0012  0.0000 </r>
        <r>  0.0085  0.0000  0.0000  0.0000  0.0012  0.0014  0.0000  0.0008  0.0000 </r>
        <r>  0.0358  0.0000  0.0000  0.0000  0.0003  0.0008  0.0000  0.0014  0.0000 </r>
        <r>  0.0223  0.0000  0.0000  0.0000  0.0014  0.0012  0.0000  0.0003  0.0000 </r>
        <r>  0.0000  0.0485  0.0302  0.0114  0.0000  0.0000  0.0000  0.0000  0.0000 </r>
        <r>  0.0000  0.0302  0.0485  0.0532  0.0000  0.0000  0.0000  0.0000  0.0000 </r>
        <r>  0.0000  0.0532  0.0114  0.0302  0.0000  0.0000  0.0000  0.0000  0.0000 </r>
        <r>  0.0000  0.0114  0.0532  0.0485  0.0000  0.0000  0.0000  0.0000  0.0000 </r>
       </set>
       <set comment="band 7">
        <r>  0.0261  0.0000  0.0000  0.0000  0.0006  0.0001  0.0000  0.0021  0.0000 </r>
        <r>  0.0017  0.0000  0.0000  0.0000  0.0021  0.0009  0.0000  0.0006  0.0000 </r>
        <r>  0.0601  0.0000  0.0000  0.0000  0.0001  0.0006  0.0000  0.0009  0.0000 </r>
        <r>  0.0180  0.0000  0.0000  0.0000  0.0009  0.0021  0.0000  0.0001  0.0000 </r>
        <r>  0.0000  0.0813  0.0243  0.0023  0.0000  0.0000  0.0000  0.0000  0.0000 </r>
        <r>  0.0000  0.0243  0.0813  0.0354  0.0000  0.0000  0.0000  0.0000  0.0000 </r>
        <r>  0.0000  0.0354  0.0023  0.0243  0.0000  0.0000  0.0000  0.0000  0.0000 </r>
        <r>  0.0000  0.0023  0.0354  0.0813  0.0000  0.0000  0.0000  0.0000  0.0000 </r>
       </set>
       <set comment="band 8">
        <r>  0.0090  0.0000  0.0000  0.0000  0.0002  0.0030  0.0000  0.0002  0.0000 </r>
        <r>  0.0867  0.0000  0.0000  0.0000  0.0002  0.0003  0.0000  0.0002  0.0000 </r>
        <r>  0.0051  0.0000  0.0000  0.0000  0.0030  0.0002  0.0000  0.0003  0.0000 </r>
        <r>  0.0051  0.0000  0.0000  0.0000  0.0003  0.0002  0.0000  0.0030  0.0000 </r>
        <r>  0.0000  0.0069  0.0069  0.1174  0.0000  0.0000  0.0000  0.0000  0.0000 </r>
        <r>  0.0000  0.0069  0.0069  0.0122  0.0000  0.0000  0.0000  0.0000  0.0000 </r>
        <r>  0.0000  0.0122  0.1174  0.0069  0.0000  0.0000  0.0000  0.0000  0.0000 </r>
        <r>  0.0000  0.1174  0.0122  0.0069  0.0000  0.0000  0.0000  0.0000  0.0000 </r>
       </set>
       <set comment="band 9">
        <r>  0.0000  0.0000  0.0000  0.0000  0.0003  0.0002  0.0043  0.0001  0.0070 </r>
        <r>  0.0000  0.0000  0.0000  0.0000  0.0001  0.0007  0.0046  0.0001  0.0044 </r>
        <r>  0.0000  0.0000  0.0000  0.0000  0.0003  0.0002  0.0018  0.0003  0.0004 </r>
        <r>  0.0000  0.0000  0.0000  0.0000  0.0003  0.0000  0.0037  0.0005  0.0015 </r>
        <r>  0.0000  0.0199  0.0629  0.0482  0.0000  0.0000  0.0000  0.0000  0.0000 </r>
        <r>  0.0000  0.0222  0.0310  0.1486  0.0000  0.0000  0.0000  0.0000  0.0000 </r>
        <r>  0.0000  0.0667  0.0780  0.0474  0.0000  0.0000  0.0000  0.0000  0.0000 </r>
        <r>  0.0000  0.1013  0.0732  0.0049  0.0000  0.0000  0.0000  0.0000  0.0000 </r>
       </set>
       <set comment="band 10">
        <r>  0.0000  0.0000  0.0000  0.0000  0.0009  0.0003  0.0007  0.0001  0.0016 </r>
        <r>  0.0000  0.0000  0.0000  0.0000  0.0002  0.0002  0.0063  0.0001  0.0010 </r>
        <r>  0.0000  0.0000  0.0000  0.0000  0.0005  0.0006  0.0028  0.0001  0.0020 </r>
        <r>  0.0000  0.0000  0.0000  0.0000  0.0001  0.0002  0.0117  0.0000  0.0017 </r>
        <r>  0.0000  0.0210  0.1977  0.0754  0.0000  0.0000  0.0000  0.0000  0.0000 </r>
        <r>  0.0000  0.0136  0.0466  0.0359  0.0000  0.0000  0.0000  0.0000  0.0000 </r>
        <r>  0.0000  0.0115  0.1071  0.1284  0.0000  0.0000  0.0000  0.0000  0.0000 </r>
        <r>  0.0000  0.0028  0.0122  0.0521  0.0000  0.0000  0.0000  0.0000  0.0000 </r>
       </set>
       <set comment="band 11">
        <r>  0.0000  0.0000  0.0000  0.0000  0.0001  0.0005  0.0007  0.0001  0.0037 </r>
        <r>  0.0000  0.0000  0.0000  0.0000  0.0002  0.0002  0.0045  0.0009  0.0030 </r>
        <r>  0.0000  0.0000  0.0000  0.0000  0.0003  0.0004  0.0024  0.0002  0.0006 </r>
        <r>  0.0000  0.0000  0.0000  0.0000  0.0001  0.0001  0.0020  0.0000  0.0110 </r>
        <r>  0.0000  0.0129  0.0332  0.1090  0.0000  0.0000  0.0000  0.0000  0.0000 </r>
        <r>  0.0000  0.2065  0.0398  0.0483  0.0000  0.0000  0.0000  0.0000  0.0000 </r>
        <r>  0.0000  0.0521  0.0757  0.0889  0.0000  0.0000  0.0000  0.0000  0.0000 </r>
        <r>  0.0000  0.0045  0.0118  0.0216  0.0000  0.0000  0.0000  0.0000  0.0000 </r>
       </set>
       <set comment="band 12">
        <r>  0.0000  0.0000  0.0000  0.0000  0.0001  0.0001  0.0044  0.0004  0.0065 </r>
        <r>  0.0000  0.0000  0.0000  0.0000  0.0004  0.0002  0.0006  0.0001  0.0028 </r>
        <r>  0.0000  0.0000  0.0000  0.0000  0.0000  0.0002  0.0049  0.0007  0.0049 </r>
        <r>  0.0000  0.0000  0.0000  0.0000  0.0003  0.0003  0.0014  0.0002  0.0022 </r>
        <r>  0.0000  0.0988  0.0245  0.0277  0.0000  0.0000  0.0000  0.0000  0.0000 </r>
        <r>  0.0000  0.0235  0.0829  0.0356  0.0000  0.0000  0.0000  0.0000  0.0000 </r>
        <r>  0.0000  0.1671  0.0099  0.0446  0.0000  0.0000  0.0000  0.0000  0.0000 </r>
        <r>  0.0000  0.0479  0.0747  0.0672  0.0000  0.0000  0.0000  0.0000  0.0000 </r>
       </set>
       <set comment="band 13">
        <r>  0.0000  0.0000  0.0000  0.0000  0.0000  0.0001  0.0055  0.0010  0.0016 </r>
        <r>  0.0000  0.0000  0.0000  0.0000  0.0003  0.0001  0.0015  0.0001  0.0038 </r>
        <r>  0.0000  0.0000  0.0000  0.0000  0.0001  0.0001  0.0040  0.0003  0.0094 </r>
        <r>  0.0000  0.0000  0.0000  0.0000  0.0004  0.0003  0.0001  0.0004  0.0019 </r>
        <r>  0.0000  0.2146  0.0014  0.0194  0.0000  0.0000  0.0000  0.0000  0.0000 </r>
        <r>  0.0000  0.0291  0.0679  0.0316  0.0000  0.0000  0.0000  0.0000  0.0000 </r>
        <r>  0.0000  0.0562  0.0254  0.0194  0.0000  0.0000  0.0000  0.0000  0.0000 </r>
        <r>  0.0000  0.0887  0.0936  0.0571  0.0000  0.0000  0.0000  0.0000  0.0000 </r>
       </set>
       <set comment="band 14">
        <r>  0.0000  0.0000  0.0000  0.0000  0.0002  0.0002  0.0015  0.0001  0.0020 </r>
        <r>  0.0000  0.0000  0.0000  0.0000  0.0005  0.0002  0.0038  0.0000  0.0080 </r>
        <r>  0.0000  0.0000  0.0000  0.0000  0.0003  0.0003  0.0060  0.0001  0.0019 </r>
        <r>  0.0000  0.0000  0.0000  0.0000  0.0001  0.0003  0.0022  0.0009  0.0023 </r>
        <r>  0.0000  0.0303  0.0373  0.0401  0.0000  0.0000  0.0000  0.0000  0.0000 </r>
        <r>  0.0000  0.0054  0.1018  0.0460  0.0000  0.0000  0.0000  0.0000  0.0000 </r>
        <r>  0.0000  0.0173  0.0650  0.0711  0.0000  0.0000  0.0000  0.0000  0.0000 </r>
        <r>  0.0000  0.1945  0.0259  0.0695  0.0000  0.0000  0.0000  0.0000  0.0000 </r>
       </set>
       <set comment="band 15">
        <r>  0.0000  0.0000  0.0000  0.0000  0.0002  0.0002  0.0045  0.0002  0.0038 </r>
        <r>  0.0000  0.0000  0.0000  0.0000  0.0002  0.0003  0.0003  0.0003  0.0031 </r>
        <r>  0.0000  0.0000  0.0000  0.0000  0.0000  0.0001  0.0025  0.0003  0.0079 </r>
        <r>  0.0000  0.0000  0.0000  0.0000  0.0003  0.0008  0.0032  0.0001  0.0025 </r>
        <r>  0.0000  0.0513  0.0540  0.0529  0.0000  0.0000  0.0000  0.0000  0.0000 </r>
        <r>  0.0000  0.0623  0.0429  0.0777  0.0000  0.0000  0.0000  0.0000  0.0000 </r>
        <r>  0.0000  0.0562  0.0045  0.0270  0.0000  0.0000  0.0000  0.0000  0.0000 </r>
        <r>  0.0000  0.0284  0.0768  0.1705  0.0000  0.0000  0.0000  0.0000  0.0000 </r>
       </set>
       <set comment="band 16">
        <r>  0.0000  0.0000  0.0000  0.0000  0.0003  0.0004  0.0060  0.0001  0.0015 </r>
        <r>  0.0000  0.0000  0.0000  0.0000  0.0003  0.0002  0.0062  0.0005  0.0018 </r>
        <r>  0.0000  0.0000  0.0000  0.0000  0.0005  0.0002  0.0033  0.0002  0.0008 </r>
        <r>  0.0000  0.0000  0.0000  0.0000  0.0005  0.0001  0.0035  0.0000  0.0048 </r>
        <r>  0.0000  0.0208  0.0586  0.0969  0.0000  0.0000  0.0000  0.0000  0.0000 </r>
        <r>  0.0000  0.1069  0.0566  0.0459  0.0000  0.0000  0.0000  0.0000  0.0000 </r>
        <r>  0.0000  0.0424  0.1040  0.0428  0.0000  0.0000  0.0000  0.0000  0.0000 </r>
        <r>  0.0000  0.0013  0.1015  0.0266  0.0000  0.0000  0.0000  0.0000  0.0000 </r>
       </set>
       <set comment="band 17">
        <r>  0.0000  0.0136  0.0069  0.0320  0.0000  0.0000  0.0000  0.0000  0.0000 </r>
        <r>  0.0000  0.0069  0.0136  0.0081  0.0000  0.0000  0.0000  0.0000  0.0000 </r>
        <r>  0.0000  0.0081  0.0320  0.0069  0.0000  0.0000  0.0000  0.0000  0.0000 </r>
        <r>  0.0000  0.0320  0.0081  0.0136  0.0000  0.0000  0.0000  0.0000  0.0000 </r>
        <r>  0.0145  0.0000  0.0000  0.0000  0.0000  0.0000  0.0000  0.0000  0.0000 </r>
        <r>  0.0572  0.0000  0.0000  0.0000  0.0000  0.0000  0.0000  0.0000  0.0000 </r>
        <r>  0.0244  0.0000  0.0000  0.0000  0.0000  0.0000  0.0000  0.0000  0.0000 </r>
        <r>  0.0124  0.0000  0.0000  0.0000  0.0000  0.0000  0.0000  0.0000  0.0000 </r>
       </set>
       <set comment="band 18">
        <r>  0.0000  0.0144  0.0084  0.0057  0.0000  0.0000  0.0000  0.0000  0.0000 </r>
        <r>  0.0000  0.0084  0.0144  0.0322  0.0000  0.0000  0.0000  0.0000  0.0000 </r>
        <r>  0.0000  0.0322  0.0057  0.0084  0.0000  0.0000  0.0000  0.0000  0.0000 </r>
        <r>  0.0000  0.0057  0.0322  0.0144  0.0000  0.0000  0.0000  0.0000  0.0000 </r>
        <r>  0.0574  0.0000  0.0000  0.0000  0.0000  0.0000  0.0000  0.0000  0.0000 </r>
        <r>  0.0102  0.0000  0.0000  0.0000  0.0000  0.0000  0.0000  0.0000  0.0000 </r>
        <r>  0.0257  0.0000  0.0000  0.0000  0.0000  0.0000  0.0000  0.0000  0.0000 </r>
        <r>  0.0150  0.0000  0.0000  0.0000  0.0000  0.0000  0.0000  0.0000  0.0000 </r>
       </set>
       <set comment="band 19">
        <r>  0.0000  0.0124  0.0093  0.0190  0.0000  0.0000  0.0000  0.0000  0.0000 </r>
        <r>  0.0000  0.0093  0.0124  0.0200  0.0000  0.0000  0.0000  0.0000  0.0000 </r>
        <r>  0.0000  0.0200  0.0190  0.0093  0.0000  0.0000  0.0000  0.0000  0.0000 </r>
        <r>  0.0000  0.0190  0.0200  0.0124  0.0000  0.0000  0.0000  0.0000  0.0000 </r>
        <r>  0.0357  0.0000  0.0000  0.0000  0.0000  0.0000  0.0000  0.0000  0.0000 </r>
        <r>  0.0340  0.0000  0.0000  0.0000  0.0000  0.0000  0.0000  0.0000  0.0000 </r>
        <r>  0.0221  0.0000  0.0000  0.0000  0.0000  0.0000  0.0000  0.0000  0.0000 </r>
        <r>  0.0166  0.0000  0.0000  0.0000  0.0000  0.0000  0.0000  0.0000  0.0000 </r>
       </set>
       <set comment="band 20">
        <r>  0.0000  0.0203  0.0361  0.0039  0.0000  0.0000  0.0000  0.0000  0.0000 </r>
        <r>  0.0000  0.0361  0.0203  0.0005  0.0000  0.0000  0.0000  0.0000  0.0000 </r>
        <r>  0.0000  0.0005  0.0039  0.0361  0.0000  0.0000  0.0000  0.0000  0.0000 </r>
        <r>  0.0000  0.0039  0.0005  0.0203  0.0000  0.0000  0.0000  0.0000  0.0000 </r>
        <r>  0.0008  0.0000  0.0000  0.0000  0.0000  0.0000  0.0000  0.0000  0.0000 </r>
        <r>  0.0070  0.0000  0.0000  0.0000  0.0000  0.0000  0.0000  0.0000  0.0000 </r>
        <r>  0.0362  0.0000  0.0000  0.0000  0.0000  0.0000  0.0000  0.0000  0.0000 </r>
        <r>  0.0644  0.0000  0.0000  0.0000  0.0000  0.0000  0.0000  0.0000  0.0000 </r>
       </set>
       <set comment="band 21">
        <r>  0.0923  0.0000  0.0000  0.0000  0.0028  0.0012  0.0000  0.0007  0.0000 </r>
        <r>  0.0117  0.0000  0.0000  0.0000  0.0007  0.0096  0.0000  0.0028  0.0000 </r>
        <r>  0.0069  0.0000  0.0000  0.0000  0.0012  0.0028  0.0000  0.0096  0.0000 </r>
        <r>  0.0266  0.0000  0.0000  0.0000  0.0096  0.0007  0.0000  0.0012  0.0000 </r>
        <r>  0.0000  0.0079  0.0304  0.0133  0.0000  0.0000  0.0000  0.0000  0.0000 </r>
        <r>  0.0000  0.0304  0.0079  0.1052  0.0000  0.0000  0.0000  0.0000  0.0000 </r>
        <r>  0.0000  0.1052  0.0133  0.0304  0.0000  0.0000  0.0000  0.0000  0.0000 </r>
        <r>  0.0000  0.0133  0.1052  0.0079  0.0000  0.0000  0.0000  0.0000  0.0000 </r>
       </set>
       <set comment="band 22">
        <r>  0.0123  0.0000  0.0000  0.0000  0.0071  0.0014  0.0000  0.0044  0.0000 </r>
        <r>  0.0138  0.0000  0.0000  0.0000  0.0044  0.0013  0.0000  0.0071  0.0000 </r>
        <r>  0.0425  0.0000  0.0000  0.0000  0.0014  0.0071  0.0000  0.0013  0.0000 </r>
        <r>  0.0689  0.0000  0.0000  0.0000  0.0013  0.0044  0.0000  0.0014  0.0000 </r>
        <r>  0.0000  0.0485  0.0785  0.0157  0.0000  0.0000  0.0000  0.0000  0.0000 </r>
        <r>  0.0000  0.0785  0.0485  0.0140  0.0000  0.0000  0.0000  0.0000  0.0000 </r>
        <r>  0.0000  0.0140  0.0157  0.0785  0.0000  0.0000  0.0000  0.0000  0.0000 </r>
        <r>  0.0000  0.0157  0.0140  0.0485  0.0000  0.0000  0.0000  0.0000  0.0000 </r>
       </set>
       <set comment="band 23">
        <r>  0.0249  0.0000  0.0000  0.0000  0.0043  0.0007  0.0000  0.0066  0.0000 </r>
        <r>  0.0071  0.0000  0.0000  0.0000  0.0066  0.0026  0.0000  0.0043  0.0000 </r>
        <r>  0.0636  0.0000  0.0000  0.0000  0.0007  0.0043  0.0000  0.0026  0.0000 </r>
        <r>  0.0420  0.0000  0.0000  0.0000  0.0026  0.0066  0.0000  0.0007  0.0000 </r>
        <r>  0.0000  0.0725  0.0478  0.0080  0.0000  0.0000  0.0000  0.0000  0.0000 </r>
        <r>  0.0000  0.0478  0.0725  0.0284  0.0000  0.0000  0.0000  0.0000  0.0000 </r>
        <r>  0.0000  0.0284  0.0080  0.0478  0.0000  0.0000  0.0000  0.0000  0.0000 </r>
        <r>  0.0000  0.0080  0.0284  0.0725  0.0000  0.0000  0.0000  0.0000  0.0000 </r>
       </set>
       <set comment="band 24">
        <r>  0.0080  0.0000  0.0000  0.0000  0.0000  0.0109  0.0000  0.0025  0.0000 </r>
        <r>  0.1050  0.0000  0.0000  0.0000  0.0025  0.0008  0.0000  0.0000  0.0000 </r>
        <r>  0.0245  0.0000  0.0000  0.0000  0.0109  0.0000  0.0000  0.0008  0.0000 </r>
        <r>  0.0001  0.0000  0.0000  0.0000  0.0008  0.0025  0.0000  0.0109  0.0000 </r>
        <r>  0.0000  0.0279  0.0001  0.1197  0.0000  0.0000  0.0000  0.0000  0.0000 </r>
        <r>  0.0000  0.0001  0.0279  0.0091  0.0000  0.0000  0.0000  0.0000  0.0000 </r>
        <r>  0.0000  0.0091  0.1197  0.0001  0.0000  0.0000  0.0000  0.0000  0.0000 </r>
        <r>  0.0000  0.1197  0.0091  0.0279  0.0000  0.0000  0.0000  0.0000  0.0000 </r>
       </set>
      </set>
     </set>
    </set>
   </array>
  </projected>
 </calculation>
 <structure name="finalpos" >
  <crystal>
   <varray name="basis" >
    <v>       4.20270429       0.00000000      -0.00000000 </v>
    <v>       0.00000000       4.20270429      -0.00000000 </v>
    <v>       0.00000000       0.00000000       4.20270429 </v>
   </varray>
   <i name="volume">     74.23120344 </i>
   <varray name="rec_basis" >
    <v>       0.23794203      -0.00000000      -0.00000000 </v>
    <v>      -0.00000000       0.23794203      -0.00000000 </v>
    <v>       0.00000000       0.00000000       0.23794203 </v>
   </varray>
  </crystal>
  <varray name="positions" >
   <v>       0.00000000       0.00000000       0.00000000 </v>
   <v>       0.00000000       0.50000000       0.50000000 </v>
   <v>       0.50000000       0.00000000       0.50000000 </v>
   <v>       0.50000000       0.50000000       0.00000000 </v>
   <v>       0.50000000       0.50000000       0.50000000 </v>
   <v>       0.50000000       0.00000000       0.00000000 </v>
   <v>       0.00000000       0.50000000       0.00000000 </v>
   <v>       0.00000000       0.00000000       0.50000000 </v>
  </varray>
 </structure>
</modeling>
